 Entering Gaussian System, Link 0=/shared/gaussian/g09.d01/intel64-sandybridge/g09/g09
 Initial command:
 /shared/gaussian/g09.d01/intel64-sandybridge/g09/l1.exe "/scratch/daniele/SCRGAU.235154.MeMe_M0001_force/Gau-24065.inp" -scrdir="/scratch/daniele/SCRGAU.235154.MeMe_M0001_force/"
 Entering Link 1 = /shared/gaussian/g09.d01/intel64-sandybridge/g09/l1.exe PID=     24066.
  
 Copyright (c) 1988,1990,1992,1993,1995,1998,2003,2009,2013,
            Gaussian, Inc.  All Rights Reserved.
  
 This is part of the Gaussian(R) 09 program.  It is based on
 the Gaussian(R) 03 system (copyright 2003, Gaussian, Inc.),
 the Gaussian(R) 98 system (copyright 1998, Gaussian, Inc.),
 the Gaussian(R) 94 system (copyright 1995, Gaussian, Inc.),
 the Gaussian 92(TM) system (copyright 1992, Gaussian, Inc.),
 the Gaussian 90(TM) system (copyright 1990, Gaussian, Inc.),
 the Gaussian 88(TM) system (copyright 1988, Gaussian, Inc.),
 the Gaussian 86(TM) system (copyright 1986, Carnegie Mellon
 University), and the Gaussian 82(TM) system (copyright 1983,
 Carnegie Mellon University). Gaussian is a federally registered
 trademark of Gaussian, Inc.
  
 This software contains proprietary and confidential information,
 including trade secrets, belonging to Gaussian, Inc.
  
 This software is provided under written license and may be
 used, copied, transmitted, or stored only in accord with that
 written license.
  
 The following legend is applicable only to US Government
 contracts under FAR:
  
                    RESTRICTED RIGHTS LEGEND
  
 Use, reproduction and disclosure by the US Government is
 subject to restrictions as set forth in subparagraphs (a)
 and (c) of the Commercial Computer Software - Restricted
 Rights clause in FAR 52.227-19.
  
 Gaussian, Inc.
 340 Quinnipiac St., Bldg. 40, Wallingford CT 06492
  
  
 ---------------------------------------------------------------
 Warning -- This program may not be used in any manner that
 competes with the business of Gaussian, Inc. or will provide
 assistance to any competitor of Gaussian, Inc.  The licensee
 of this program is prohibited from giving any competitor of
 Gaussian, Inc. access to this program.  By using this program,
 the user acknowledges that Gaussian, Inc. is engaged in the
 business of creating and licensing software in the field of
 computational chemistry and represents and warrants to the
 licensee that it is not a competitor of Gaussian, Inc. and that
 it will not use this program in any manner prohibited above.
 ---------------------------------------------------------------
  

 Cite this work as:
 Gaussian 09, Revision D.01,
 M. J. Frisch, G. W. Trucks, H. B. Schlegel, G. E. Scuseria, 
 M. A. Robb, J. R. Cheeseman, G. Scalmani, V. Barone, B. Mennucci, 
 G. A. Petersson, H. Nakatsuji, M. Caricato, X. Li, H. P. Hratchian, 
 A. F. Izmaylov, J. Bloino, G. Zheng, J. L. Sonnenberg, M. Hada, 
 M. Ehara, K. Toyota, R. Fukuda, J. Hasegawa, M. Ishida, T. Nakajima, 
 Y. Honda, O. Kitao, H. Nakai, T. Vreven, J. A. Montgomery, Jr., 
 J. E. Peralta, F. Ogliaro, M. Bearpark, J. J. Heyd, E. Brothers, 
 K. N. Kudin, V. N. Staroverov, T. Keith, R. Kobayashi, J. Normand, 
 K. Raghavachari, A. Rendell, J. C. Burant, S. S. Iyengar, J. Tomasi, 
 M. Cossi, N. Rega, J. M. Millam, M. Klene, J. E. Knox, J. B. Cross, 
 V. Bakken, C. Adamo, J. Jaramillo, R. Gomperts, R. E. Stratmann, 
 O. Yazyev, A. J. Austin, R. Cammi, C. Pomelli, J. W. Ochterski, 
 R. L. Martin, K. Morokuma, V. G. Zakrzewski, G. A. Voth, 
 P. Salvador, J. J. Dannenberg, S. Dapprich, A. D. Daniels, 
 O. Farkas, J. B. Foresman, J. V. Ortiz, J. Cioslowski, 
 and D. J. Fox, Gaussian, Inc., Wallingford CT, 2013.
 
 ******************************************
 Gaussian 09:  ES64L-G09RevD.01 24-Apr-2013
                19-Oct-2016 
 ******************************************
 %nprocshared=8
 Will use up to    8 processors via shared memory.
 %chk=MeMe_00001_force.chk
 %mem=4GB
 -------------------------------------
 #p force td=root=1 b3lyp 3-21G nosymm
 -------------------------------------
 1/10=7,30=1,38=1/1,3;
 2/12=2,15=1,17=6,18=5,40=1/2;
 3/5=5,11=9,16=1,25=1,30=1,71=1,74=-5/1,2,8,3;
 4//1;
 5/5=2,38=5/2;
 8/6=1,10=1,107=1/1;
 9/8=1,15=2,42=1,70=2/14;
 10/5=4,31=1/2;
 6/7=2,8=2,9=2,10=2,18=1/1;
 7/12=6,13=5,14=1,29=1,30=1/1,2,3,16;
 1/10=7,30=1/3;
 99//99;
 Leave Link    1 at Wed Oct 19 23:51:54 2016, MaxMem=   536870912 cpu:         0.3
 (Enter /shared/gaussian/g09.d01/intel64-sandybridge/g09/l101.exe)
 ----------
 MeMe_M0001
 ----------
 Symbolic Z-matrix:
 Charge =  0 Multiplicity = 1
 6                     0.12862  -0.6224    1.01236 
 1                     0.01045  -1.70746   1.12299 
 6                    -1.11991  -0.07417   0.32382 
 6                    -3.44848   0.909    -0.89961 
 6                    -2.07996  -0.97077  -0.19765 
 6                    -1.32673   1.31998   0.21463 
 6                    -2.49786   1.79099  -0.39137 
 6                    -3.23482  -0.46412  -0.80759 
 1                    -2.65566   2.86165  -0.46522 
 1                    -3.96846  -1.1558   -1.20695 
 1                    -4.34995   1.28904  -1.36686 
 6                     1.41199  -0.38522   0.22232 
 6                     3.81141  -0.09636  -1.2 
 6                     1.42013  -0.47374  -1.17441 
 6                     2.61115  -0.14699   0.90297 
 6                     3.80418  -0.00107   0.19378 
 6                     2.61541  -0.332    -1.88219 
 1                     0.48812  -0.63463  -1.70372 
 1                     2.58761  -0.06848   1.9808 
 1                     4.7279    0.18851   0.72899 
 1                     2.61099  -0.39885  -2.96428 
 1                     4.73878   0.01635  -1.74986 
 8                     0.34519  -0.04883   2.35509 
 1                    -0.51837  -0.13029   2.84221 
 6                    -0.29342   2.32002   0.70927 
 1                     0.19687   1.93056   1.60087 
 1                    -0.76477   3.28448   0.9232 
 1                     0.47519   2.47341  -0.05853 
 6                    -1.89826  -2.48376  -0.131 
 1                    -0.97559  -2.80258  -0.62963 
 1                    -2.7365   -2.97964  -0.62939 
 1                    -1.86607  -2.84452   0.90448 
 
 NAtoms=     32 NQM=       32 NQMF=       0 NMMI=      0 NMMIF=      0
                NMic=       0 NMicF=      0.
                    Isotopes and Nuclear Properties:
 (Nuclear quadrupole moments (NQMom) in fm**2, nuclear magnetic moments (NMagM)
  in nuclear magnetons)

  Atom         1           2           3           4           5           6           7           8           9          10
 IAtWgt=          12           1          12          12          12          12          12          12           1           1
 AtmWgt=  12.0000000   1.0078250  12.0000000  12.0000000  12.0000000  12.0000000  12.0000000  12.0000000   1.0078250   1.0078250
 NucSpn=           0           1           0           0           0           0           0           0           1           1
 AtZEff=   0.0000000   0.0000000   0.0000000   0.0000000   0.0000000   0.0000000   0.0000000   0.0000000   0.0000000   0.0000000
 NQMom=    0.0000000   0.0000000   0.0000000   0.0000000   0.0000000   0.0000000   0.0000000   0.0000000   0.0000000   0.0000000
 NMagM=    0.0000000   2.7928460   0.0000000   0.0000000   0.0000000   0.0000000   0.0000000   0.0000000   2.7928460   2.7928460
 AtZNuc=   6.0000000   1.0000000   6.0000000   6.0000000   6.0000000   6.0000000   6.0000000   6.0000000   1.0000000   1.0000000

  Atom        11          12          13          14          15          16          17          18          19          20
 IAtWgt=           1          12          12          12          12          12          12           1           1           1
 AtmWgt=   1.0078250  12.0000000  12.0000000  12.0000000  12.0000000  12.0000000  12.0000000   1.0078250   1.0078250   1.0078250
 NucSpn=           1           0           0           0           0           0           0           1           1           1
 AtZEff=   0.0000000   0.0000000   0.0000000   0.0000000   0.0000000   0.0000000   0.0000000   0.0000000   0.0000000   0.0000000
 NQMom=    0.0000000   0.0000000   0.0000000   0.0000000   0.0000000   0.0000000   0.0000000   0.0000000   0.0000000   0.0000000
 NMagM=    2.7928460   0.0000000   0.0000000   0.0000000   0.0000000   0.0000000   0.0000000   2.7928460   2.7928460   2.7928460
 AtZNuc=   1.0000000   6.0000000   6.0000000   6.0000000   6.0000000   6.0000000   6.0000000   1.0000000   1.0000000   1.0000000

  Atom        21          22          23          24          25          26          27          28          29          30
 IAtWgt=           1           1          16           1          12           1           1           1          12           1
 AtmWgt=   1.0078250   1.0078250  15.9949146   1.0078250  12.0000000   1.0078250   1.0078250   1.0078250  12.0000000   1.0078250
 NucSpn=           1           1           0           1           0           1           1           1           0           1
 AtZEff=   0.0000000   0.0000000   0.0000000   0.0000000   0.0000000   0.0000000   0.0000000   0.0000000   0.0000000   0.0000000
 NQMom=    0.0000000   0.0000000   0.0000000   0.0000000   0.0000000   0.0000000   0.0000000   0.0000000   0.0000000   0.0000000
 NMagM=    2.7928460   2.7928460   0.0000000   2.7928460   0.0000000   2.7928460   2.7928460   2.7928460   0.0000000   2.7928460
 AtZNuc=   1.0000000   1.0000000   8.0000000   1.0000000   6.0000000   1.0000000   1.0000000   1.0000000   6.0000000   1.0000000

  Atom        31          32
 IAtWgt=           1           1
 AtmWgt=   1.0078250   1.0078250
 NucSpn=           1           1
 AtZEff=   0.0000000   0.0000000
 NQMom=    0.0000000   0.0000000
 NMagM=    2.7928460   2.7928460
 AtZNuc=   1.0000000   1.0000000
 Leave Link  101 at Wed Oct 19 23:51:54 2016, MaxMem=   536870912 cpu:         0.6
 (Enter /shared/gaussian/g09.d01/intel64-sandybridge/g09/l103.exe)

 GradGradGradGradGradGradGradGradGradGradGradGradGradGradGradGradGradGrad
 Berny optimization.
 Initialization pass.
 Trust Radius=3.00D-01 FncErr=1.00D-07 GrdErr=1.00D-07
 Number of steps in this run=      2 maximum allowed number of steps=      2.
 GradGradGradGradGradGradGradGradGradGradGradGradGradGradGradGradGradGrad

 Leave Link  103 at Wed Oct 19 23:51:54 2016, MaxMem=   536870912 cpu:         0.1
 (Enter /shared/gaussian/g09.d01/intel64-sandybridge/g09/l202.exe)
                          Input orientation:                          
 ---------------------------------------------------------------------
 Center     Atomic      Atomic             Coordinates (Angstroms)
 Number     Number       Type             X           Y           Z
 ---------------------------------------------------------------------
      1          6           0        0.128620   -0.622398    1.012360
      2          1           0        0.010448   -1.707464    1.122992
      3          6           0       -1.119912   -0.074170    0.323822
      4          6           0       -3.448484    0.909002   -0.899610
      5          6           0       -2.079956   -0.970772   -0.197652
      6          6           0       -1.326733    1.319984    0.214626
      7          6           0       -2.497863    1.790994   -0.391366
      8          6           0       -3.234818   -0.464119   -0.807590
      9          1           0       -2.655659    2.861645   -0.465218
     10          1           0       -3.968455   -1.155803   -1.206953
     11          1           0       -4.349954    1.289043   -1.366858
     12          6           0        1.411986   -0.385218    0.222316
     13          6           0        3.811408   -0.096360   -1.199996
     14          6           0        1.420127   -0.473739   -1.174411
     15          6           0        2.611153   -0.146990    0.902969
     16          6           0        3.804180   -0.001066    0.193776
     17          6           0        2.615412   -0.331998   -1.882189
     18          1           0        0.488120   -0.634632   -1.703723
     19          1           0        2.587607   -0.068484    1.980799
     20          1           0        4.727904    0.188507    0.728991
     21          1           0        2.610990   -0.398846   -2.964278
     22          1           0        4.738784    0.016345   -1.749862
     23          8           0        0.345188   -0.048832    2.355090
     24          1           0       -0.518367   -0.130291    2.842209
     25          6           0       -0.293418    2.320020    0.709267
     26          1           0        0.196870    1.930563    1.600872
     27          1           0       -0.764774    3.284477    0.923195
     28          1           0        0.475190    2.473406   -0.058532
     29          6           0       -1.898258   -2.483762   -0.130995
     30          1           0       -0.975589   -2.802579   -0.629630
     31          1           0       -2.736500   -2.979639   -0.629386
     32          1           0       -1.866066   -2.844521    0.904478
 ---------------------------------------------------------------------
                    Distance matrix (angstroms):
                    1          2          3          4          5
     1  C    0.000000
     2  H    1.097074   0.000000
     3  C    1.527570   2.141036   0.000000
     4  C    4.335492   4.785501   2.808142   0.000000
     5  C    2.542302   2.580040   1.413335   2.428820   0.000000
     6  C    2.554854   3.432000   1.413635   2.431513   2.446402
     7  C    3.833187   4.563344   2.426743   1.392804   2.799915
     8  C    3.827530   3.975526   2.430017   1.392689   1.400867
     9  H    4.698298   5.523341   3.405894   2.151763   3.884642
    10  H    4.689978   4.643775   3.409897   2.151337   2.149268
    11  H    5.419586   5.847351   3.892290   1.084159   3.409794
    12  C    1.525599   2.126937   2.552952   5.153435   3.565516
    13  C    4.328298   4.737006   5.161437   7.335327   6.039657
    14  C    2.544024   2.964344   2.975929   5.068615   3.667653
    15  C    2.530010   3.040914   3.776448   6.409650   4.888403
    16  C    3.816527   4.262351   4.926351   7.390863   5.976337
    17  C    3.827124   4.208189   4.345757   6.267087   5.029133
    18  H    2.739799   3.060957   2.647796   4.304214   2.996040
    19  H    2.700243   3.172355   4.060948   6.759189   5.229332
    20  H    4.678812   5.099444   5.867718   8.368081   6.967751
    21  H    4.693164   5.018075   4.983638   6.533800   5.475974
    22  H    5.412160   5.794995   6.215519   8.279561   7.062505
    23  O    1.476077   2.093126   2.504638   5.089446   3.639751
    24  H    2.002276   2.392243   2.589842   4.864866   3.519336
    25  C    2.987943   4.060065   2.561993   3.812335   3.852730
    26  H    2.620804   3.674012   2.717301   4.537026   4.103215
    27  H    4.008712   5.055726   3.430143   4.020920   4.592727
    28  H    3.294074   4.369400   3.029965   4.306970   4.290744
    29  C    2.979962   2.412111   2.572706   3.808519   1.525318
    30  H    2.944248   2.289810   2.893806   4.468102   2.182143
    31  H    4.057195   3.497854   3.458860   3.962508   2.157079
    32  H    2.988016   2.204983   2.927243   4.455077   2.184348
                    6          7          8          9         10
     6  C    0.000000
     7  C    1.400222   0.000000
     8  C    2.805127   2.408709   0.000000
     9  H    2.145915   1.084734   3.393133   0.000000
    10  H    3.889615   3.392851   1.084500   4.291095   0.000000
    11  H    3.412025   2.152622   2.151717   2.481263   2.479593
    12  C    3.226198   4.516572   4.760223   5.249815   5.620121
    13  C    5.514316   6.634975   7.066720   7.149311   7.851671
    14  C    3.562598   4.592692   4.669386   5.314111   5.431674
    15  C    4.258260   5.615437   6.099341   6.217968   6.982887
    16  C    5.298290   6.577964   7.124931   7.096401   7.981811
    17  C    4.760902   5.733692   5.949572   6.323872   6.669475
    18  H    3.285465   4.064731   3.833066   4.862221   4.514362
    19  H    4.513233   5.911584   6.467787   6.485406   7.370616
    20  H    6.180893   7.485644   8.135843   7.942846   9.010089
    21  H    5.344667   6.125002   6.231295   6.679348   6.852027
    22  H    6.507625   7.573899   8.043448   8.026446   8.802539
    23  O    3.041474   4.360151   4.794940   5.042826   5.702723
    24  H    3.108206   4.250382   4.561971   4.945581   5.417610
    25  C    1.520685   2.520087   4.324826   2.693131   5.409172
    26  H    2.148453   3.354114   4.828216   3.643153   5.895716
    27  H    2.162661   2.638590   4.811310   2.383679   5.875133
    28  H    2.156832   3.068470   4.791065   3.180934   5.851155
    29  C    3.861940   4.324449   2.514584   5.409135   2.684563
    30  H    4.222747   4.845101   3.256406   5.910423   3.464451
    31  H    4.602886   4.782524   2.570587   5.844150   2.275450
    32  H    4.255570   4.854521   3.235888   5.921136   3.424901
                   11         12         13         14         15
    11  H    0.000000
    12  C    6.207139   0.000000
    13  C    8.279796   2.804218   0.000000
    14  C    6.036412   1.399553   2.421011   0.000000
    15  C    7.461321   1.399301   2.421908   2.416778   0.000000
    16  C    8.401777   2.423010   1.397045   2.789097   1.395551
    17  C    7.170053   2.424873   1.396896   1.396333   2.791299
    18  H    5.217371   2.150665   3.404074   1.083833   3.397044
    19  H    7.821729   2.138847   3.408214   3.388597   1.080942
    20  H    9.381432   3.403115   2.154554   3.873357   2.150224
    21  H    7.338628   3.404729   2.155271   2.151136   3.875439
    22  H    9.185402   3.888229   1.084012   3.403647   3.404556
    23  O    6.138987   2.408306   4.965438   3.713949   2.693119
    24  H    5.866158   3.264214   5.923472   4.473137   3.681688
    25  C    4.672119   3.234785   5.131644   3.780155   3.815782
    26  H    5.467411   2.956309   5.001816   3.870300   3.260684
    27  H    4.698895   4.323908   6.072845   4.826793   4.813757
    28  H    5.137747   3.021290   4.363140   3.289948   3.514726
    29  C    4.666072   3.935280   6.280345   4.017535   5.183085
    30  H    5.354551   3.502850   5.528497   3.385223   4.718658
    31  H    4.622634   4.966523   7.177325   4.884070   6.242548
    32  H    5.330574   4.154412   6.649429   4.554278   5.227061
                   16         17         18         19         20
    16  C    0.000000
    17  C    2.415019   0.000000
    18  H    3.872746   2.156110   0.000000
    19  H    2.162879   3.872065   4.278326   0.000000
    20  H    1.084278   3.398795   4.956957   2.492777   0.000000
    21  H    3.399299   1.084161   2.480155   4.956155   4.297272
    22  H    2.156737   2.155820   4.300470   4.307272   2.484848
    23  O    4.078993   4.815458   4.103359   2.273527   4.680676
    24  H    5.071026   5.672847   4.683255   3.223805   5.664864
    25  C    4.737455   4.712763   3.894007   3.952474   5.455035
    26  H    4.327100   4.806271   4.193495   3.139452   4.932059
    27  H    5.674697   5.689879   4.881583   4.857914   6.308110
    28  H    4.155580   3.971973   3.516635   3.883604   4.891475
    29  C    6.227925   5.298112   3.404050   5.515091   7.196292
    30  H    5.601131   4.535192   2.827740   5.194803   6.581966
    31  H    7.233947   6.101023   4.129338   6.605604   8.221901
    32  H    6.382948   5.844821   4.150724   5.357243   7.260199
                   21         22         23         24         25
    21  H    0.000000
    22  H    2.484894   0.000000
    23  O    5.792413   6.013199   0.000000
    24  H    6.601537   6.981852   0.994810   0.000000
    25  C    5.415049   6.056178   2.954321   3.256389   0.000000
    26  H    5.665220   5.959919   2.123405   2.509901   1.089504
    27  H    6.330489   6.936503   3.793849   3.924789   1.094586
    28  H    4.610296   5.203458   3.493445   4.022523   1.097179
    29  C    5.719063   7.274723   4.140357   4.035203   5.133992
    30  H    4.908367   6.469568   4.270378   4.404979   5.338448
    31  H    6.380271   8.130883   5.195530   5.009079   5.987239
    32  H    6.402549   7.671644   3.848350   3.596962   5.402204
                   26         27         28         29         30
    26  H    0.000000
    27  H    1.793624   0.000000
    28  H    1.767983   1.777396   0.000000
    29  C    5.184129   5.972326   5.496546   0.000000
    30  H    5.362129   6.285536   5.501539   1.096175   0.000000
    31  H    6.139120   6.748138   6.354253   1.094046   1.769790
    32  H    5.248056   6.227183   5.889755   1.096990   1.774316
                   31         32
    31  H    0.000000
    32  H    1.768799   0.000000
 Symmetry turned off by external request.
 Stoichiometry    C15H16O
 Framework group  C1[X(C15H16O)]
 Deg. of freedom    90
 Full point group                 C1      NOp   1
 Rotational constants (GHZ):      0.9290357      0.3619806      0.3468115
 Leave Link  202 at Wed Oct 19 23:51:54 2016, MaxMem=   536870912 cpu:         0.1
 (Enter /shared/gaussian/g09.d01/intel64-sandybridge/g09/l301.exe)
 Standard basis: 3-21G (6D, 7F)
 Ernie: Thresh=  0.10000D-02 Tol=  0.10000D-05 Strict=F.
   176 basis functions,   288 primitive gaussians,   176 cartesian basis functions
    57 alpha electrons       57 beta electrons
       nuclear repulsion energy      1054.9738197062 Hartrees.
 IExCor=  402 DFT=T Ex+Corr=B3LYP ExCW=0 ScaHFX=  0.200000
 ScaDFX=  0.800000  0.720000  1.000000  0.810000 ScalE2=  1.000000  1.000000
 IRadAn=      0 IRanWt=     -1 IRanGd=            0 ICorTp=0 IEmpDi=  4
 NAtoms=   32 NActive=   32 NUniq=   32 SFac= 1.00D+00 NAtFMM=   60 NAOKFM=F Big=F
 Integral buffers will be    131072 words long.
 Regular integral format.
 Two-electron integral symmetry is turned off.
 Leave Link  301 at Wed Oct 19 23:51:54 2016, MaxMem=   536870912 cpu:         0.3
 (Enter /shared/gaussian/g09.d01/intel64-sandybridge/g09/l302.exe)
 NPDir=0 NMtPBC=     1 NCelOv=     1 NCel=       1 NClECP=     1 NCelD=      1
         NCelK=      1 NCelE2=     1 NClLst=     1 CellRange=     0.0.
 One-electron integrals computed using PRISM.
 NBasis=   176 RedAO= T EigKep=  1.31D-03  NBF=   176
 NBsUse=   176 1.00D-06 EigRej= -1.00D+00 NBFU=   176
 Precomputing XC quadrature grid using
 IXCGrd= 4 IRadAn=           0 IRanWt=          -1 IRanGd=           0 AccXCQ= 0.00D+00.
 Generated NRdTot=       0 NPtTot=           0 NUsed=           0 NTot=          32
 NSgBfM=   175   175   175   175   175 MxSgAt=    32 MxSgA2=    32.
 Leave Link  302 at Wed Oct 19 23:51:54 2016, MaxMem=   536870912 cpu:         2.1
 (Enter /shared/gaussian/g09.d01/intel64-sandybridge/g09/l308.exe)
 Leave Link  308 at Wed Oct 19 23:51:54 2016, MaxMem=   536870912 cpu:         0.2
 (Enter /shared/gaussian/g09.d01/intel64-sandybridge/g09/l303.exe)
 DipDrv:  MaxL=1.
 Leave Link  303 at Wed Oct 19 23:51:54 2016, MaxMem=   536870912 cpu:         0.2
 (Enter /shared/gaussian/g09.d01/intel64-sandybridge/g09/l401.exe)
 ExpMin= 1.83D-01 ExpMax= 3.22D+02 ExpMxC= 3.22D+02 IAcc=1 IRadAn=         1 AccDes= 0.00D+00
 Harris functional with IExCor=  402 and IRadAn=       1 diagonalized for initial guess.
 HarFok:  IExCor=  402 AccDes= 0.00D+00 IRadAn=         1 IDoV= 1 UseB2=F ITyADJ=14
 ICtDFT=  3500011 ScaDFX=  1.000000  1.000000  1.000000  1.000000
 FoFCou: FMM=F IPFlag=           0 FMFlag=      100000 FMFlg1=           0
         NFxFlg=           0 DoJE=T BraDBF=F KetDBF=T FulRan=T
         wScrn=  0.000000 ICntrl=     500 IOpCl=  0 I1Cent=   200000004 NGrid=           0
         NMat0=    1 NMatS0=      1 NMatT0=    0 NMatD0=    1 NMtDS0=    0 NMtDT0=    0
 Symmetry not used in FoFCou.
 Harris En= -652.809297068908    
 JPrj=0 DoOrth=F DoCkMO=F.
 Leave Link  401 at Wed Oct 19 23:51:55 2016, MaxMem=   536870912 cpu:         3.4
 (Enter /shared/gaussian/g09.d01/intel64-sandybridge/g09/l502.exe)
 Closed shell SCF:
 Using DIIS extrapolation, IDIIS=  1040.
 Two-electron integral symmetry not used.
 Keep R1 ints in memory in canonical form, NReq=124200210.
 IVT=      114006 IEndB=      114006 NGot=   536870912 MDV=   415443231
 LenX=   415443231 LenY=   415411814
 Requested convergence on RMS density matrix=1.00D-08 within 128 cycles.
 Requested convergence on MAX density matrix=1.00D-06.
 Requested convergence on             energy=1.00D-06.
 No special actions if energy rises.
 FoFCou: FMM=F IPFlag=           0 FMFlag=           0 FMFlg1=           0
         NFxFlg=           0 DoJE=F BraDBF=F KetDBF=F FulRan=T
         wScrn=  0.000000 ICntrl=     600 IOpCl=  0 I1Cent=           0 NGrid=           0
         NMat0=    1 NMatS0=  15576 NMatT0=    0 NMatD0=    1 NMtDS0=    0 NMtDT0=    0
 Symmetry not used in FoFCou.
 Integral accuracy reduced to 1.0D-05 until final iterations.

 Cycle   1  Pass 0  IDiag  1:
 E= -652.570990140822    
 DIIS: error= 3.90D-02 at cycle   1 NSaved=   1.
 NSaved= 1 IEnMin= 1 EnMin= -652.570990140822     IErMin= 1 ErrMin= 3.90D-02
 ErrMax= 3.90D-02  0.00D+00 EMaxC= 1.00D-01 BMatC= 2.77D-01 BMatP= 2.77D-01
 IDIUse=3 WtCom= 6.10D-01 WtEn= 3.90D-01
 Coeff-Com:  0.100D+01
 Coeff-En:   0.100D+01
 Coeff:      0.100D+01
 Gap=     0.246 Goal=   None    Shift=    0.000
 GapD=    0.246 DampG=1.000 DampE=0.500 DampFc=0.5000 IDamp=-1.
 Damping current iteration by 5.00D-01
 RMSDP=6.47D-03 MaxDP=1.30D-01              OVMax= 1.20D-01

 Cycle   2  Pass 0  IDiag  1:
 E= -652.711971881251     Delta-E=       -0.140981740430 Rises=F Damp=T
 DIIS: error= 5.34D-03 at cycle   2 NSaved=   2.
 NSaved= 2 IEnMin= 2 EnMin= -652.711971881251     IErMin= 2 ErrMin= 5.34D-03
 ErrMax= 5.34D-03  0.00D+00 EMaxC= 1.00D-01 BMatC= 1.27D-02 BMatP= 2.77D-01
 IDIUse=3 WtCom= 9.47D-01 WtEn= 5.34D-02
 Coeff-Com: -0.105D-01 0.101D+01
 Coeff-En:   0.000D+00 0.100D+01
 Coeff:     -0.989D-02 0.101D+01
 Gap=     0.245 Goal=   None    Shift=    0.000
 RMSDP=1.41D-03 MaxDP=4.11D-02 DE=-1.41D-01 OVMax= 7.89D-02

 Cycle   3  Pass 0  IDiag  1:
 E= -652.848366730374     Delta-E=       -0.136394849123 Rises=F Damp=F
 DIIS: error= 9.14D-03 at cycle   3 NSaved=   3.
 NSaved= 3 IEnMin= 3 EnMin= -652.848366730374     IErMin= 2 ErrMin= 5.34D-03
 ErrMax= 9.14D-03  0.00D+00 EMaxC= 1.00D-01 BMatC= 9.87D-03 BMatP= 1.27D-02
 IDIUse=3 WtCom= 9.09D-01 WtEn= 9.14D-02
 Coeff-Com: -0.423D-01 0.484D+00 0.558D+00
 Coeff-En:   0.000D+00 0.000D+00 0.100D+01
 Coeff:     -0.384D-01 0.440D+00 0.598D+00
 Gap=     0.231 Goal=   None    Shift=    0.000
 RMSDP=1.12D-03 MaxDP=3.37D-02 DE=-1.36D-01 OVMax= 3.83D-02

 Cycle   4  Pass 0  IDiag  1:
 E= -652.853580599759     Delta-E=       -0.005213869385 Rises=F Damp=F
 DIIS: error= 5.25D-03 at cycle   4 NSaved=   4.
 NSaved= 4 IEnMin= 4 EnMin= -652.853580599759     IErMin= 4 ErrMin= 5.25D-03
 ErrMax= 5.25D-03  0.00D+00 EMaxC= 1.00D-01 BMatC= 3.71D-03 BMatP= 9.87D-03
 IDIUse=3 WtCom= 9.48D-01 WtEn= 5.25D-02
 Coeff-Com: -0.170D-01 0.979D-01 0.391D+00 0.528D+00
 Coeff-En:   0.000D+00 0.000D+00 0.333D+00 0.667D+00
 Coeff:     -0.161D-01 0.928D-01 0.388D+00 0.535D+00
 Gap=     0.230 Goal=   None    Shift=    0.000
 RMSDP=5.36D-04 MaxDP=1.67D-02 DE=-5.21D-03 OVMax= 2.01D-02

 Cycle   5  Pass 0  IDiag  1:
 E= -652.857304098463     Delta-E=       -0.003723498704 Rises=F Damp=F
 DIIS: error= 1.18D-03 at cycle   5 NSaved=   5.
 NSaved= 5 IEnMin= 5 EnMin= -652.857304098463     IErMin= 5 ErrMin= 1.18D-03
 ErrMax= 1.18D-03  0.00D+00 EMaxC= 1.00D-01 BMatC= 1.56D-04 BMatP= 3.71D-03
 IDIUse=3 WtCom= 9.88D-01 WtEn= 1.18D-02
 Coeff-Com: -0.675D-02 0.318D-01 0.197D+00 0.310D+00 0.468D+00
 Coeff-En:   0.000D+00 0.000D+00 0.000D+00 0.000D+00 0.100D+01
 Coeff:     -0.667D-02 0.314D-01 0.194D+00 0.306D+00 0.475D+00
 Gap=     0.230 Goal=   None    Shift=    0.000
 RMSDP=1.05D-04 MaxDP=2.15D-03 DE=-3.72D-03 OVMax= 4.73D-03

 Cycle   6  Pass 0  IDiag  1:
 E= -652.857469965777     Delta-E=       -0.000165867314 Rises=F Damp=F
 DIIS: error= 2.76D-04 at cycle   6 NSaved=   6.
 NSaved= 6 IEnMin= 6 EnMin= -652.857469965777     IErMin= 6 ErrMin= 2.76D-04
 ErrMax= 2.76D-04  0.00D+00 EMaxC= 1.00D-01 BMatC= 1.07D-05 BMatP= 1.56D-04
 IDIUse=3 WtCom= 9.97D-01 WtEn= 2.76D-03
 EnCoef did     2 forward-backward iterations
 Coeff-Com: -0.591D-03 0.154D-02 0.420D-01 0.797D-01 0.246D+00 0.632D+00
 Coeff-En:   0.000D+00 0.000D+00 0.000D+00 0.000D+00 0.145D-02 0.999D+00
 Coeff:     -0.590D-03 0.153D-02 0.419D-01 0.795D-01 0.245D+00 0.633D+00
 Gap=     0.230 Goal=   None    Shift=    0.000
 RMSDP=2.59D-05 MaxDP=5.78D-04 DE=-1.66D-04 OVMax= 1.13D-03

 Cycle   7  Pass 0  IDiag  1:
 E= -652.857479882346     Delta-E=       -0.000009916569 Rises=F Damp=F
 DIIS: error= 7.01D-05 at cycle   7 NSaved=   7.
 NSaved= 7 IEnMin= 7 EnMin= -652.857479882346     IErMin= 7 ErrMin= 7.01D-05
 ErrMax= 7.01D-05  0.00D+00 EMaxC= 1.00D-01 BMatC= 8.77D-07 BMatP= 1.07D-05
 IDIUse=1 WtCom= 1.00D+00 WtEn= 0.00D+00
 Coeff-Com:  0.664D-04-0.786D-03 0.125D-01 0.272D-01 0.113D+00 0.352D+00
 Coeff-Com:  0.496D+00
 Coeff:      0.664D-04-0.786D-03 0.125D-01 0.272D-01 0.113D+00 0.352D+00
 Coeff:      0.496D+00
 Gap=     0.230 Goal=   None    Shift=    0.000
 RMSDP=8.13D-06 MaxDP=1.96D-04 DE=-9.92D-06 OVMax= 2.84D-04

 Initial convergence to 1.0D-05 achieved.  Increase integral accuracy.
 Cycle   8  Pass 1  IDiag  1:
 E= -652.857279656152     Delta-E=        0.000200226194 Rises=F Damp=F
 DIIS: error= 2.99D-05 at cycle   1 NSaved=   1.
 NSaved= 1 IEnMin= 1 EnMin= -652.857279656152     IErMin= 1 ErrMin= 2.99D-05
 ErrMax= 2.99D-05  0.00D+00 EMaxC= 1.00D-01 BMatC= 1.84D-07 BMatP= 1.84D-07
 IDIUse=1 WtCom= 1.00D+00 WtEn= 0.00D+00
 Coeff-Com:  0.100D+01
 Coeff:      0.100D+01
 Gap=     0.230 Goal=   None    Shift=    0.000
 RMSDP=8.13D-06 MaxDP=1.96D-04 DE= 2.00D-04 OVMax= 2.11D-04

 Cycle   9  Pass 1  IDiag  1:
 E= -652.857279719766     Delta-E=       -0.000000063614 Rises=F Damp=F
 DIIS: error= 4.47D-05 at cycle   2 NSaved=   2.
 NSaved= 2 IEnMin= 2 EnMin= -652.857279719766     IErMin= 1 ErrMin= 2.99D-05
 ErrMax= 4.47D-05  0.00D+00 EMaxC= 1.00D-01 BMatC= 1.70D-07 BMatP= 1.84D-07
 IDIUse=1 WtCom= 1.00D+00 WtEn= 0.00D+00
 Coeff-Com:  0.486D+00 0.514D+00
 Coeff:      0.486D+00 0.514D+00
 Gap=     0.230 Goal=   None    Shift=    0.000
 RMSDP=4.58D-06 MaxDP=1.15D-04 DE=-6.36D-08 OVMax= 2.03D-04

 Cycle  10  Pass 1  IDiag  1:
 E= -652.857279864299     Delta-E=       -0.000000144533 Rises=F Damp=F
 DIIS: error= 2.41D-05 at cycle   3 NSaved=   3.
 NSaved= 3 IEnMin= 3 EnMin= -652.857279864299     IErMin= 3 ErrMin= 2.41D-05
 ErrMax= 2.41D-05  0.00D+00 EMaxC= 1.00D-01 BMatC= 4.58D-08 BMatP= 1.70D-07
 IDIUse=1 WtCom= 1.00D+00 WtEn= 0.00D+00
 Coeff-Com: -0.327D-02 0.340D+00 0.663D+00
 Coeff:     -0.327D-02 0.340D+00 0.663D+00
 Gap=     0.230 Goal=   None    Shift=    0.000
 RMSDP=1.67D-06 MaxDP=3.80D-05 DE=-1.45D-07 OVMax= 7.18D-05

 Cycle  11  Pass 1  IDiag  1:
 E= -652.857279916668     Delta-E=       -0.000000052369 Rises=F Damp=F
 DIIS: error= 3.49D-06 at cycle   4 NSaved=   4.
 NSaved= 4 IEnMin= 4 EnMin= -652.857279916668     IErMin= 4 ErrMin= 3.49D-06
 ErrMax= 3.49D-06  0.00D+00 EMaxC= 1.00D-01 BMatC= 1.40D-09 BMatP= 4.58D-08
 IDIUse=1 WtCom= 1.00D+00 WtEn= 0.00D+00
 Coeff-Com: -0.143D-01 0.174D+00 0.362D+00 0.478D+00
 Coeff:     -0.143D-01 0.174D+00 0.362D+00 0.478D+00
 Gap=     0.230 Goal=   None    Shift=    0.000
 RMSDP=3.18D-07 MaxDP=8.51D-06 DE=-5.24D-08 OVMax= 1.61D-05

 Cycle  12  Pass 1  IDiag  1:
 E= -652.857279918007     Delta-E=       -0.000000001339 Rises=F Damp=F
 DIIS: error= 1.47D-06 at cycle   5 NSaved=   5.
 NSaved= 5 IEnMin= 5 EnMin= -652.857279918007     IErMin= 5 ErrMin= 1.47D-06
 ErrMax= 1.47D-06  0.00D+00 EMaxC= 1.00D-01 BMatC= 1.22D-10 BMatP= 1.40D-09
 IDIUse=1 WtCom= 1.00D+00 WtEn= 0.00D+00
 Coeff-Com: -0.660D-02 0.543D-01 0.116D+00 0.270D+00 0.566D+00
 Coeff:     -0.660D-02 0.543D-01 0.116D+00 0.270D+00 0.566D+00
 Gap=     0.230 Goal=   None    Shift=    0.000
 RMSDP=1.18D-07 MaxDP=3.70D-06 DE=-1.34D-09 OVMax= 4.98D-06

 Cycle  13  Pass 1  IDiag  1:
 E= -652.857279918093     Delta-E=       -0.000000000086 Rises=F Damp=F
 DIIS: error= 3.13D-07 at cycle   6 NSaved=   6.
 NSaved= 6 IEnMin= 6 EnMin= -652.857279918093     IErMin= 6 ErrMin= 3.13D-07
 ErrMax= 3.13D-07  0.00D+00 EMaxC= 1.00D-01 BMatC= 1.44D-11 BMatP= 1.22D-10
 IDIUse=1 WtCom= 1.00D+00 WtEn= 0.00D+00
 Coeff-Com: -0.295D-02 0.204D-01 0.445D-01 0.129D+00 0.337D+00 0.472D+00
 Coeff:     -0.295D-02 0.204D-01 0.445D-01 0.129D+00 0.337D+00 0.472D+00
 Gap=     0.230 Goal=   None    Shift=    0.000
 RMSDP=2.84D-08 MaxDP=7.99D-07 DE=-8.62D-11 OVMax= 1.09D-06

 Cycle  14  Pass 1  IDiag  1:
 E= -652.857279918136     Delta-E=       -0.000000000043 Rises=F Damp=F
 DIIS: error= 6.83D-08 at cycle   7 NSaved=   7.
 NSaved= 7 IEnMin= 7 EnMin= -652.857279918136     IErMin= 7 ErrMin= 6.83D-08
 ErrMax= 6.83D-08  0.00D+00 EMaxC= 1.00D-01 BMatC= 5.46D-13 BMatP= 1.44D-11
 IDIUse=1 WtCom= 1.00D+00 WtEn= 0.00D+00
 Coeff-Com: -0.673D-03 0.362D-02 0.827D-02 0.301D-01 0.940D-01 0.207D+00
 Coeff-Com:  0.658D+00
 Coeff:     -0.673D-03 0.362D-02 0.827D-02 0.301D-01 0.940D-01 0.207D+00
 Coeff:      0.658D+00
 Gap=     0.230 Goal=   None    Shift=    0.000
 RMSDP=7.35D-09 MaxDP=2.39D-07 DE=-4.34D-11 OVMax= 2.39D-07

 SCF Done:  E(RB3LYP) =  -652.857279918     A.U. after   14 cycles
            NFock= 14  Conv=0.74D-08     -V/T= 2.0087
 KE= 6.472123097300D+02 PE=-3.624498962928D+03 EE= 1.269455553574D+03
 Leave Link  502 at Wed Oct 19 23:52:07 2016, MaxMem=   536870912 cpu:        71.3
 (Enter /shared/gaussian/g09.d01/intel64-sandybridge/g09/l801.exe)
 DoSCS=F DFT=T ScalE2(SS,OS)=  1.000000  1.000000
 ExpMin= 1.83D-01 ExpMax= 3.22D+02 ExpMxC= 3.22D+02 IAcc=3 IRadAn=         5 AccDes= 0.00D+00
 HarFok:  IExCor=  205 AccDes= 0.00D+00 IRadAn=         5 IDoV=-2 UseB2=F ITyADJ=14
 ICtDFT= 12500011 ScaDFX=  1.000000  1.000000  1.000000  1.000000
 Largest valence mixing into a core orbital is  2.39D-04
 Largest core mixing into a valence orbital is  7.28D-05
 Range of M.O.s used for correlation:    17   176
 NBasis=   176 NAE=    57 NBE=    57 NFC=    16 NFV=     0
 NROrb=    160 NOA=    41 NOB=    41 NVA=   119 NVB=   119
 Leave Link  801 at Wed Oct 19 23:52:07 2016, MaxMem=   536870912 cpu:         1.6
 (Enter /shared/gaussian/g09.d01/intel64-sandybridge/g09/l914.exe)
 RHF ground state
 MDV=   536870912 DFT=T DoStab=F Mixed=T DoRPA=T DoScal=F NonHer=T
 Keep R1, R2, and R3 ints in memory in canonical form, NReq=385485423.
 FoFCou: FMM=F IPFlag=           0 FMFlag=           0 FMFlg1=           0
         NFxFlg=           0 DoJE=F BraDBF=F KetDBF=F FulRan=T
         wScrn=  0.000000 ICntrl=     600 IOpCl=  0 I1Cent=           0 NGrid=           0
         NMat0=    1 NMatS0=  15576 NMatT0=    0 NMatD0=    1 NMtDS0=    0 NMtDT0=    0
 Symmetry not used in FoFCou.
 Making orbital integer symmetry assigments:
    12 initial guesses have been made.
 Convergence on wavefunction:    0.000001000000000
 Davidson Disk Diagonalization:  ConvIn= 1.00D-06 SkipCon=T Conv= 1.00D-06.
 Max sub-space:   200 roots to seek:    12 dimension of matrix:         9758
 Iteration     1 Dimension    12 NMult     0 NNew     12
 CISAX will form    12 AO SS matrices at one time.
 NMat=    12 NSing=    12 JSym2X= 0.
 New state      1 was old state      8
 New state      3 was old state     11
 Excitation Energies [eV] at current iteration:
 Root      1 :     5.465247315903808
 Root      2 :     5.582170955817775
 Root      3 :     5.783633717852749
 Root      4 :     5.898534330461618
 Root      5 :     6.036417228798915
 Root      6 :     6.092786230245435
 Root      7 :     6.238134508181516
 Root      8 :     6.683480467592723
 Root      9 :     7.078806530234570
 Root     10 :     7.737383396317415
 Root     11 :     7.774800834245857
 Root     12 :     8.189416655768024
 Iteration     2 Dimension    18 NMult    12 NNew      6
 CISAX will form     6 AO SS matrices at one time.
 NMat=     6 NSing=     6 JSym2X= 0.
 Root      1 not converged, maximum delta is    0.166002643187320
 Root      2 not converged, maximum delta is    0.092148855047584
 Root      3 not converged, maximum delta is    0.208927411654857
 Excitation Energies [eV] at current iteration:
 Root      1 :     5.330453073730698   Change is   -0.134794242173110
 Root      2 :     5.536320203246372   Change is   -0.045850752571404
 Root      3 :     5.595908953459173   Change is   -0.187724764393575
 Iteration     3 Dimension    24 NMult    18 NNew      6
 CISAX will form     6 AO SS matrices at one time.
 NMat=     6 NSing=     6 JSym2X= 0.
 Root      1 not converged, maximum delta is    0.021119146785753
 Root      2 not converged, maximum delta is    0.037036551369934
 Root      3 not converged, maximum delta is    0.058271647393847
 Excitation Energies [eV] at current iteration:
 Root      1 :     5.313692454901134   Change is   -0.016760618829565
 Root      2 :     5.528905078053091   Change is   -0.007415125193281
 Root      3 :     5.575747366330053   Change is   -0.020161587129120
 Iteration     4 Dimension    30 NMult    24 NNew      6
 CISAX will form     6 AO SS matrices at one time.
 NMat=     6 NSing=     6 JSym2X= 0.
 Root      1 not converged, maximum delta is    0.003714431177517
 Root      2 not converged, maximum delta is    0.010444347751961
 Root      3 not converged, maximum delta is    0.008491387862180
 Excitation Energies [eV] at current iteration:
 Root      1 :     5.311898219908938   Change is   -0.001794234992196
 Root      2 :     5.527617921854839   Change is   -0.001287156198252
 Root      3 :     5.574042375327055   Change is   -0.001704991002998
 Iteration     5 Dimension    36 NMult    30 NNew      6
 CISAX will form     6 AO SS matrices at one time.
 NMat=     6 NSing=     6 JSym2X= 0.
 Root      1 not converged, maximum delta is    0.001429258739550
 Root      2 not converged, maximum delta is    0.001975117735765
 Root      3 not converged, maximum delta is    0.002332069059176
 Excitation Energies [eV] at current iteration:
 Root      1 :     5.311632053584860   Change is   -0.000266166324078
 Root      2 :     5.527492877659747   Change is   -0.000125044195092
 Root      3 :     5.573755844054850   Change is   -0.000286531272205
 Iteration     6 Dimension    42 NMult    36 NNew      6
 CISAX will form     6 AO SS matrices at one time.
 NMat=     6 NSing=     6 JSym2X= 0.
 Root      1 not converged, maximum delta is    0.000459835074248
 Root      2 not converged, maximum delta is    0.000229543435028
 Root      3 not converged, maximum delta is    0.000471028905300
 Excitation Energies [eV] at current iteration:
 Root      1 :     5.311590100633153   Change is   -0.000041952951706
 Root      2 :     5.527479551966342   Change is   -0.000013325693406
 Root      3 :     5.573715298577628   Change is   -0.000040545477222
 Iteration     7 Dimension    48 NMult    42 NNew      6
 CISAX will form     6 AO SS matrices at one time.
 NMat=     6 NSing=     6 JSym2X= 0.
 Root      1 not converged, maximum delta is    0.000091653526052
 Root      2 not converged, maximum delta is    0.000067772795707
 Root      3 not converged, maximum delta is    0.000096702424749
 Excitation Energies [eV] at current iteration:
 Root      1 :     5.311586329196760   Change is   -0.000003771436394
 Root      2 :     5.527478082201624   Change is   -0.000001469764718
 Root      3 :     5.573710190541246   Change is   -0.000005108036382
 Iteration     8 Dimension    54 NMult    48 NNew      6
 CISAX will form     6 AO SS matrices at one time.
 NMat=     6 NSing=     6 JSym2X= 0.
 Root      1 not converged, maximum delta is    0.000034914551595
 Root      2 not converged, maximum delta is    0.000021317348057
 Root      3 not converged, maximum delta is    0.000060590372960
 Excitation Energies [eV] at current iteration:
 Root      1 :     5.311585948944127   Change is   -0.000000380252632
 Root      2 :     5.527477947125115   Change is   -0.000000135076509
 Root      3 :     5.573709724707567   Change is   -0.000000465833679
 Iteration     9 Dimension    60 NMult    54 NNew      6
 CISAX will form     6 AO SS matrices at one time.
 NMat=     6 NSing=     6 JSym2X= 0.
 Root      1 not converged, maximum delta is    0.000009931183503
 Root      2 not converged, maximum delta is    0.000005085340048
 Root      3 not converged, maximum delta is    0.000016773352123
 Excitation Energies [eV] at current iteration:
 Root      1 :     5.311585916431944   Change is   -0.000000032512184
 Root      2 :     5.527477936065450   Change is   -0.000000011059665
 Root      3 :     5.573709679665151   Change is   -0.000000045042416
 Iteration    10 Dimension    66 NMult    60 NNew      6
 CISAX will form     6 AO SS matrices at one time.
 NMat=     6 NSing=     6 JSym2X= 0.
 Root      1 not converged, maximum delta is    0.000002059749341
 Root      2 not converged, maximum delta is    0.000002243161489
 Root      3 not converged, maximum delta is    0.000006019896406
 Excitation Energies [eV] at current iteration:
 Root      1 :     5.311585913656883   Change is   -0.000000002775060
 Root      2 :     5.527477934878995   Change is   -0.000000001186455
 Root      3 :     5.573709675317676   Change is   -0.000000004347475
 Iteration    11 Dimension    72 NMult    66 NNew      6
 CISAX will form     6 AO SS matrices at one time.
 NMat=     6 NSing=     6 JSym2X= 0.
 Root      1 has converged.
 Root      2 has converged.
 Root      3 not converged, maximum delta is    0.000002282521267
 Excitation Energies [eV] at current iteration:
 Root      1 :     5.311585913425981   Change is   -0.000000000230902
 Root      2 :     5.527477934781877   Change is   -0.000000000097118
 Root      3 :     5.573709674864360   Change is   -0.000000000453315
 Iteration    12 Dimension    74 NMult    72 NNew      2
 CISAX will form     2 AO SS matrices at one time.
 NMat=     2 NSing=     2 JSym2X= 0.
 Root      1 has converged.
 Root      2 has converged.
 Root      3 has converged.
 Excitation Energies [eV] at current iteration:
 Root      1 :     5.311585913423754   Change is   -0.000000000002228
 Root      2 :     5.527477934780761   Change is   -0.000000000001116
 Root      3 :     5.573709674832089   Change is   -0.000000000032271
 Convergence achieved on expansion vectors.
 ***********************************************************************
 Excited states from <AA,BB:AA,BB> singles matrix:
 ***********************************************************************
 
 1PDM for each excited state written to RWF  633
 Ground to excited state transition densities written to RWF  633
 Ground to excited state transition electric dipole moments (Au):
       state          X           Y           Z        Dip. S.      Osc.
         1         0.0048     -0.2729     -0.0110      0.0746      0.0097
         2         0.0152      0.0487      0.0150      0.0028      0.0004
         3         0.0559     -0.0018      0.0210      0.0036      0.0005
 Ground to excited state transition velocity dipole moments (Au):
       state          X           Y           Z        Dip. S.      Osc.
         1         0.0014      0.0469      0.0034      0.0022      0.0076
         2        -0.0024     -0.0155     -0.0005      0.0002      0.0008
         3        -0.0067      0.0043     -0.0074      0.0001      0.0004
 Ground to excited state transition magnetic dipole moments (Au):
       state          X           Y           Z
         1         0.1497     -0.0157     -0.4503
         2         0.0292      0.0690      0.0057
         3        -0.0543      0.0992      0.0257
 Ground to excited state transition velocity quadrupole moments (Au):
       state          XX          YY          ZZ          XY          XZ          YZ
         1        -0.0771      0.0141     -0.0085     -0.1411     -0.0009     -0.0073
         2         0.0093      0.0208      0.0416      0.0147     -0.0299     -0.0398
         3        -0.0262     -0.0079      0.0057      0.0056     -0.0012      0.0327
 <0|del|b> * <b|rxdel|0> + <0|del|b> * <b|delr+rdel|0>
 Rotatory Strengths (R) in cgs (10**-40 erg-esu-cm/Gauss)
       state          XX          YY          ZZ    R(velocity)    E-M Angle
         1        -4.8529     -1.5095     -1.0031     -2.4552       95.22
         2        -2.6818      0.0505     -1.3390     -1.3234      165.46
         3         0.3417     -0.0063      1.7329      0.6894       61.66
 1/2[<0|r|b>*<b|rxdel|0> + (<0|rxdel|b>*<b|r|0>)*]
 Rotatory Strengths (R) in cgs (10**-40 erg-esu-cm/Gauss)
       state          XX          YY          ZZ     R(length)
         1        -0.5061     -3.0305     -3.4909     -2.3425
         2        -0.3150     -2.3751     -0.0609     -0.9170
         3         2.1460      0.1229     -0.3812      0.6292
  1/2[<0|del|b>*<b|r|0> + (<0|r|b>*<b|del|0>)*] (Au)
       state          X           Y           Z        Dip. S.   Osc.(frdel)
         1         0.0000     -0.0128     -0.0000      0.0128      0.0086
         2        -0.0000     -0.0008     -0.0000      0.0008      0.0005
         3        -0.0004     -0.0000     -0.0002      0.0005      0.0004

 Excitation energies and oscillator strengths:
 
 Excited state symmetry could not be determined.
 Excited State   1:      Singlet-?Sym    5.3116 eV  233.42 nm  f=0.0097  <S**2>=0.000
      55 -> 58         0.15725
      55 -> 59         0.29483
      55 -> 60         0.12451
      55 -> 61         0.17905
      56 -> 58        -0.36883
      57 -> 58         0.39594
      57 -> 59        -0.15073
 This state for optimization and/or second-order correction.
 Total Energy, E(TD-HF/TD-KS) =  -652.662082719    
 Copying the excited state density for this state as the 1-particle RhoCI density.
 
 Excited state symmetry could not be determined.
 Excited State   2:      Singlet-?Sym    5.5275 eV  224.31 nm  f=0.0004  <S**2>=0.000
      54 -> 59         0.16693
      54 -> 60        -0.10959
      55 -> 58         0.16181
      56 -> 58         0.44767
      56 -> 60        -0.11009
      57 -> 58         0.38903
      57 -> 61         0.13478
 
 Excited state symmetry could not be determined.
 Excited State   3:      Singlet-?Sym    5.5737 eV  222.44 nm  f=0.0005  <S**2>=0.000
      54 -> 59         0.28934
      54 -> 60        -0.21013
      54 -> 61        -0.15635
      55 -> 60        -0.12390
      56 -> 58        -0.19451
      56 -> 60        -0.23986
      56 -> 61         0.15109
      57 -> 58        -0.21333
      57 -> 59        -0.14843
      57 -> 60        -0.25152
      57 -> 61         0.22643
 SavETr:  write IOETrn=   770 NScale= 10 NData=  16 NLR=1 NState=    3 LETran=      64.
 The selected state is a singlet
 CISAX will form     1 AO SS matrices at one time.
 NMat=     1 NSing=     1 JSym2X= 0.
 CISAX will form     1 AO SS matrices at one time.
 NMat=     1 NSing=     1 JSym2X= 0.
 Leave Link  914 at Wed Oct 19 23:53:18 2016, MaxMem=   536870912 cpu:       562.4
 (Enter /shared/gaussian/g09.d01/intel64-sandybridge/g09/l1002.exe)
 Minotr:  Closed shell wavefunction.
          Computing CIS/TD-HF/TD-KS derivatives.
          Using Z-Vector for PSCF gradient.
          Skipping F1 and S1 gradient terms here.
          IDoAtm=11111111111111111111111111111111
          Frozen-core window.
          Direct CPHF calculation.
          Differentiating once with respect to electric field.
                with respect to dipole field.
          Differentiating once with respect to nuclear coordinates.
          Requested convergence is 1.0D-10 RMS, and 1.0D-09 maximum.
          NewPWx=F KeepS1=T KeepF1=T KeepIn=T MapXYZ=F SortEE=F KeepMc=T.
          MDV=     536870428 using IRadAn=       0.
 Using stored XC quadrature information.
 Keep R1 ints in memory in canonical form, NReq=124088727.
 FoFCou: FMM=F IPFlag=           0 FMFlag=           0 FMFlg1=           0
         NFxFlg=           0 DoJE=F BraDBF=F KetDBF=F FulRan=T
         wScrn=  0.000000 ICntrl=     600 IOpCl=  0 I1Cent=           0 NGrid=           0
         NMat0=    1 NMatS0=  15576 NMatT0=    0 NMatD0=    1 NMtDS0=    0 NMtDT0=    0
 Symmetry not used in FoFCou.
          Solving linear equations separately, MaxMat=       0.
          There are     1 degrees of freedom in the 1st order CPHF.  IDoFFX=0 NUNeed=     1.
 LinEq1:  Iter=  0 NonCon=     1 RMS=2.77D-03 Max=7.66D-02 NDo=     1
 AX will form     1 AO Fock derivatives at one time.
 LinEq1:  Iter=  1 NonCon=     1 RMS=1.07D-03 Max=2.43D-02 NDo=     1
 LinEq1:  Iter=  2 NonCon=     1 RMS=9.07D-04 Max=2.29D-02 NDo=     1
 LinEq1:  Iter=  3 NonCon=     1 RMS=3.59D-04 Max=5.92D-03 NDo=     1
 LinEq1:  Iter=  4 NonCon=     1 RMS=1.63D-04 Max=3.51D-03 NDo=     1
 LinEq1:  Iter=  5 NonCon=     1 RMS=8.81D-05 Max=2.36D-03 NDo=     1
 LinEq1:  Iter=  6 NonCon=     1 RMS=5.11D-05 Max=9.62D-04 NDo=     1
 LinEq1:  Iter=  7 NonCon=     1 RMS=2.38D-05 Max=4.55D-04 NDo=     1
 LinEq1:  Iter=  8 NonCon=     1 RMS=1.40D-05 Max=2.68D-04 NDo=     1
 LinEq1:  Iter=  9 NonCon=     1 RMS=5.87D-06 Max=1.26D-04 NDo=     1
 LinEq1:  Iter= 10 NonCon=     1 RMS=4.00D-06 Max=8.70D-05 NDo=     1
 LinEq1:  Iter= 11 NonCon=     1 RMS=2.01D-06 Max=4.37D-05 NDo=     1
 LinEq1:  Iter= 12 NonCon=     1 RMS=1.07D-06 Max=2.19D-05 NDo=     1
 LinEq1:  Iter= 13 NonCon=     1 RMS=5.71D-07 Max=1.36D-05 NDo=     1
 LinEq1:  Iter= 14 NonCon=     1 RMS=2.93D-07 Max=4.51D-06 NDo=     1
 LinEq1:  Iter= 15 NonCon=     1 RMS=1.69D-07 Max=4.12D-06 NDo=     1
 LinEq1:  Iter= 16 NonCon=     1 RMS=7.90D-08 Max=1.56D-06 NDo=     1
 LinEq1:  Iter= 17 NonCon=     1 RMS=3.97D-08 Max=6.34D-07 NDo=     1
 LinEq1:  Iter= 18 NonCon=     1 RMS=1.25D-08 Max=2.33D-07 NDo=     1
 LinEq1:  Iter= 19 NonCon=     1 RMS=7.10D-09 Max=9.90D-08 NDo=     1
 LinEq1:  Iter= 20 NonCon=     1 RMS=2.22D-09 Max=3.31D-08 NDo=     1
 LinEq1:  Iter= 21 NonCon=     1 RMS=7.43D-10 Max=7.00D-09 NDo=     1
 LinEq1:  Iter= 22 NonCon=     1 RMS=3.08D-10 Max=3.96D-09 NDo=     1
 LinEq1:  Iter= 23 NonCon=     1 RMS=8.35D-11 Max=1.43D-09 NDo=     1
 LinEq1:  Iter= 24 NonCon=     0 RMS=5.02D-11 Max=9.26D-10 NDo=     1
 Linear equations converged to 1.000D-10 1.000D-09 after    24 iterations.
 End of Minotr F.D. properties file   721 does not exist.
 End of Minotr F.D. properties file   722 does not exist.
 End of Minotr F.D. properties file   788 does not exist.
 Leave Link 1002 at Wed Oct 19 23:53:50 2016, MaxMem=   536870912 cpu:       215.1
 (Enter /shared/gaussian/g09.d01/intel64-sandybridge/g09/l601.exe)
 Copying SCF densities to generalized density rwf, IOpCl= 0 IROHF=0.

 **********************************************************************

            Population analysis using the SCF density.

 **********************************************************************

 Alpha  occ. eigenvalues --  -19.03998 -10.18388 -10.14122 -10.13581 -10.13292
 Alpha  occ. eigenvalues --  -10.13177 -10.12625 -10.12464 -10.12292 -10.12266
 Alpha  occ. eigenvalues --  -10.12136 -10.12059 -10.12043 -10.11997 -10.11540
 Alpha  occ. eigenvalues --  -10.09755  -1.01317  -0.86606  -0.85265  -0.78477
 Alpha  occ. eigenvalues --   -0.78010  -0.74941  -0.74023  -0.70380  -0.67972
 Alpha  occ. eigenvalues --   -0.66372  -0.60807  -0.59464  -0.57796  -0.56872
 Alpha  occ. eigenvalues --   -0.52131  -0.50439  -0.50191  -0.47251  -0.44869
 Alpha  occ. eigenvalues --   -0.44361  -0.43960  -0.43188  -0.41980  -0.41624
 Alpha  occ. eigenvalues --   -0.41499  -0.40632  -0.40394  -0.40283  -0.37115
 Alpha  occ. eigenvalues --   -0.35955  -0.35332  -0.34991  -0.34387  -0.33961
 Alpha  occ. eigenvalues --   -0.33603  -0.31661  -0.26698  -0.24523  -0.24153
 Alpha  occ. eigenvalues --   -0.23844  -0.23566
 Alpha virt. eigenvalues --   -0.00609   0.00504   0.00900   0.01283   0.09581
 Alpha virt. eigenvalues --    0.11390   0.12176   0.12801   0.14392   0.15822
 Alpha virt. eigenvalues --    0.16387   0.16634   0.17347   0.18754   0.19104
 Alpha virt. eigenvalues --    0.19826   0.20474   0.21219   0.21953   0.22291
 Alpha virt. eigenvalues --    0.22355   0.23722   0.24265   0.26113   0.27303
 Alpha virt. eigenvalues --    0.28076   0.28653   0.33387   0.33785   0.35766
 Alpha virt. eigenvalues --    0.36612   0.37090   0.39250   0.39531   0.41528
 Alpha virt. eigenvalues --    0.55391   0.57915   0.58349   0.58756   0.64740
 Alpha virt. eigenvalues --    0.67648   0.68646   0.69270   0.70194   0.70559
 Alpha virt. eigenvalues --    0.71429   0.72027   0.72696   0.73177   0.74697
 Alpha virt. eigenvalues --    0.75810   0.75892   0.77393   0.78693   0.79512
 Alpha virt. eigenvalues --    0.80834   0.80955   0.81802   0.82813   0.84114
 Alpha virt. eigenvalues --    0.85633   0.85739   0.86875   0.87403   0.89279
 Alpha virt. eigenvalues --    0.90882   0.91728   0.92223   0.94623   0.95996
 Alpha virt. eigenvalues --    0.98116   0.98885   0.99132   0.99570   1.01998
 Alpha virt. eigenvalues --    1.02540   1.04713   1.07232   1.07476   1.08017
 Alpha virt. eigenvalues --    1.11288   1.11912   1.12342   1.14281   1.15371
 Alpha virt. eigenvalues --    1.16592   1.19065   1.22619   1.23504   1.30370
 Alpha virt. eigenvalues --    1.30699   1.33996   1.35385   1.40851   1.41847
 Alpha virt. eigenvalues --    1.44547   1.45991   1.50504   1.51426   1.53683
 Alpha virt. eigenvalues --    1.54262   1.55876   1.59108   1.60677   1.66873
 Alpha virt. eigenvalues --    1.68060   1.72432   1.78131   1.85268   1.88684
 Alpha virt. eigenvalues --    1.92408   1.97245   1.98974   1.99674   2.07632
 Alpha virt. eigenvalues --    2.25976   2.48232   2.49273   3.18631
          Condensed to atoms (all electrons):
               1          2          3          4          5          6
     1  C    5.329113   0.366516   0.217158  -0.000089  -0.057482  -0.063356
     2  H    0.366516   0.570877  -0.066600  -0.000016  -0.007515   0.004547
     3  C    0.217158  -0.066600   5.445122  -0.020993   0.423220   0.437248
     4  C   -0.000089  -0.000016  -0.020993   5.135610  -0.085736  -0.080491
     5  C   -0.057482  -0.007515   0.423220  -0.085736   5.195608  -0.079385
     6  C   -0.063356   0.004547   0.437248  -0.080491  -0.079385   5.186050
     7  C    0.003746  -0.000044  -0.078536   0.455964  -0.021615   0.463240
     8  C    0.003110   0.000271  -0.074379   0.460174   0.475163  -0.022303
     9  H   -0.000051   0.000001   0.004426  -0.039991  -0.000115  -0.043579
    10  H   -0.000052   0.000002   0.004102  -0.039121  -0.042531  -0.000148
    11  H    0.000001  -0.000000  -0.000182   0.387352   0.004103   0.004063
    12  C    0.243567  -0.062035  -0.084998   0.000005   0.002507  -0.005669
    13  C   -0.000197   0.000011  -0.000010   0.000000   0.000000  -0.000003
    14  C   -0.065785   0.001314  -0.008970   0.000004   0.000010   0.000582
    15  C   -0.063380  -0.001442   0.005598   0.000000  -0.000129   0.000146
    16  C    0.004640  -0.000004  -0.000043   0.000000  -0.000000  -0.000000
    17  C    0.004024  -0.000035   0.000187  -0.000000   0.000032  -0.000001
    18  H   -0.007446   0.000401   0.001914  -0.000003   0.002300   0.000181
    19  H   -0.006905   0.000385   0.000479   0.000000  -0.000007  -0.000007
    20  H   -0.000060   0.000001   0.000000  -0.000000   0.000000   0.000000
    21  H   -0.000058   0.000001   0.000003  -0.000000   0.000000   0.000001
    22  H    0.000002  -0.000000   0.000000  -0.000000   0.000000  -0.000000
    23  O    0.250342  -0.032636  -0.045139  -0.000001   0.001632  -0.001423
    24  H   -0.046561  -0.002097   0.001113  -0.000009   0.001099  -0.000214
    25  C   -0.010833  -0.000225  -0.056129   0.003839   0.003173   0.298359
    26  H   -0.003320   0.000760  -0.010456  -0.000097  -0.000008  -0.035618
    27  H    0.000076   0.000003   0.003523   0.000163  -0.000083  -0.042684
    28  H    0.000422   0.000009  -0.001884  -0.000084  -0.000041  -0.044981
    29  C   -0.011365   0.003404  -0.061799   0.004213   0.301613   0.002995
    30  H   -0.001072  -0.000833  -0.002279  -0.000098  -0.042616   0.000033
    31  H    0.000343   0.000174   0.003505   0.000197  -0.040514  -0.000063
    32  H   -0.000158   0.002825  -0.001961  -0.000097  -0.043300   0.000011
               7          8          9         10         11         12
     1  C    0.003746   0.003110  -0.000051  -0.000052   0.000001   0.243567
     2  H   -0.000044   0.000271   0.000001   0.000002  -0.000000  -0.062035
     3  C   -0.078536  -0.074379   0.004426   0.004102  -0.000182  -0.084998
     4  C    0.455964   0.460174  -0.039991  -0.039121   0.387352   0.000005
     5  C   -0.021615   0.475163  -0.000115  -0.042531   0.004103   0.002507
     6  C    0.463240  -0.022303  -0.043579  -0.000148   0.004063  -0.005669
     7  C    5.164348  -0.087935   0.389740   0.003958  -0.040037  -0.000024
     8  C   -0.087935   5.145209   0.003960   0.388675  -0.040361  -0.000075
     9  H    0.389740   0.003960   0.509933  -0.000055  -0.003818   0.000001
    10  H    0.003958   0.388675  -0.000055   0.512300  -0.003821   0.000001
    11  H   -0.040037  -0.040361  -0.003818  -0.003821   0.508797   0.000000
    12  C   -0.000024  -0.000075   0.000001   0.000001   0.000000   5.315413
    13  C    0.000000   0.000000  -0.000000  -0.000000   0.000000  -0.023938
    14  C   -0.000037  -0.000044   0.000001  -0.000000  -0.000000   0.445041
    15  C   -0.000000   0.000000  -0.000000  -0.000000   0.000000   0.436674
    16  C   -0.000000  -0.000000   0.000000   0.000000  -0.000000  -0.083596
    17  C   -0.000001  -0.000000  -0.000000   0.000000  -0.000000  -0.076771
    18  H   -0.000046   0.000203  -0.000000  -0.000004   0.000000  -0.043059
    19  H   -0.000000   0.000000  -0.000000  -0.000000   0.000000  -0.047043
    20  H    0.000000   0.000000  -0.000000  -0.000000   0.000000   0.004115
    21  H   -0.000000  -0.000000   0.000000  -0.000000   0.000000   0.003964
    22  H    0.000000  -0.000000   0.000000   0.000000   0.000000  -0.000187
    23  O    0.000078  -0.000005   0.000001   0.000000  -0.000000  -0.051056
    24  H   -0.000040  -0.000022   0.000001   0.000000  -0.000000   0.008650
    25  C   -0.065544   0.000095  -0.004739   0.000002  -0.000062   0.000484
    26  H    0.003254   0.000011   0.000081  -0.000000   0.000000  -0.005213
    27  H   -0.003802   0.000004   0.004071  -0.000000  -0.000002   0.000064
    28  H   -0.000465   0.000017   0.000243  -0.000000   0.000001   0.001692
    29  C    0.000072  -0.064849   0.000002  -0.005558  -0.000064   0.000120
    30  H    0.000011   0.001338  -0.000000   0.000079   0.000001   0.000435
    31  H    0.000003  -0.002558  -0.000000   0.005133  -0.000004  -0.000014
    32  H    0.000009   0.001152  -0.000000   0.000084   0.000001  -0.000037
              13         14         15         16         17         18
     1  C   -0.000197  -0.065785  -0.063380   0.004640   0.004024  -0.007446
     2  H    0.000011   0.001314  -0.001442  -0.000004  -0.000035   0.000401
     3  C   -0.000010  -0.008970   0.005598  -0.000043   0.000187   0.001914
     4  C    0.000000   0.000004   0.000000   0.000000  -0.000000  -0.000003
     5  C    0.000000   0.000010  -0.000129  -0.000000   0.000032   0.002300
     6  C   -0.000003   0.000582   0.000146  -0.000000  -0.000001   0.000181
     7  C    0.000000  -0.000037  -0.000000  -0.000000  -0.000001  -0.000046
     8  C    0.000000  -0.000044   0.000000  -0.000000  -0.000000   0.000203
     9  H   -0.000000   0.000001  -0.000000   0.000000  -0.000000  -0.000000
    10  H   -0.000000  -0.000000  -0.000000   0.000000   0.000000  -0.000004
    11  H    0.000000  -0.000000   0.000000  -0.000000  -0.000000   0.000000
    12  C   -0.023938   0.445041   0.436674  -0.083596  -0.076771  -0.043059
    13  C    5.146618  -0.082288  -0.079898   0.454211   0.457925   0.003639
    14  C   -0.082288   5.190579  -0.075226  -0.024416   0.455686   0.388446
    15  C   -0.079898  -0.075226   5.207050   0.426231  -0.024433   0.003746
    16  C    0.454211  -0.024416   0.426231   5.171015  -0.083127  -0.000180
    17  C    0.457925   0.455686  -0.024433  -0.083127   5.135849  -0.036575
    18  H    0.003639   0.388446   0.003746  -0.000180  -0.036575   0.491358
    19  H    0.003421   0.003562   0.382365  -0.032393  -0.000145  -0.000052
    20  H   -0.041697  -0.000107  -0.041021   0.389655   0.003880   0.000002
    21  H   -0.040985  -0.041100  -0.000116   0.003856   0.389722  -0.003513
    22  H    0.390460   0.004000   0.003885  -0.040594  -0.040686  -0.000048
    23  O   -0.000003   0.001464   0.002616   0.000430  -0.000008   0.000027
    24  H    0.000000  -0.000103  -0.000369  -0.000015   0.000001   0.000001
    25  C    0.000006  -0.000606  -0.000086  -0.000008  -0.000047  -0.000009
    26  H   -0.000004   0.000247   0.000875   0.000028  -0.000000   0.000001
    27  H   -0.000000   0.000021   0.000016  -0.000000  -0.000000   0.000001
    28  H    0.000013   0.001196   0.000011  -0.000026   0.000105   0.000023
    29  C   -0.000000  -0.000420   0.000003   0.000000   0.000002   0.000068
    30  H   -0.000000   0.001491   0.000002  -0.000000  -0.000002   0.000620
    31  H    0.000000   0.000001  -0.000000   0.000000  -0.000000  -0.000009
    32  H    0.000000  -0.000004   0.000002  -0.000000  -0.000000   0.000019
              19         20         21         22         23         24
     1  C   -0.006905  -0.000060  -0.000058   0.000002   0.250342  -0.046561
     2  H    0.000385   0.000001   0.000001  -0.000000  -0.032636  -0.002097
     3  C    0.000479   0.000000   0.000003   0.000000  -0.045139   0.001113
     4  C    0.000000  -0.000000  -0.000000  -0.000000  -0.000001  -0.000009
     5  C   -0.000007   0.000000   0.000000   0.000000   0.001632   0.001099
     6  C   -0.000007   0.000000   0.000001  -0.000000  -0.001423  -0.000214
     7  C   -0.000000   0.000000  -0.000000   0.000000   0.000078  -0.000040
     8  C    0.000000   0.000000  -0.000000  -0.000000  -0.000005  -0.000022
     9  H   -0.000000  -0.000000   0.000000   0.000000   0.000001   0.000001
    10  H   -0.000000  -0.000000  -0.000000   0.000000   0.000000   0.000000
    11  H    0.000000   0.000000   0.000000   0.000000  -0.000000  -0.000000
    12  C   -0.047043   0.004115   0.003964  -0.000187  -0.051056   0.008650
    13  C    0.003421  -0.041697  -0.040985   0.390460  -0.000003   0.000000
    14  C    0.003562  -0.000107  -0.041100   0.004000   0.001464  -0.000103
    15  C    0.382365  -0.041021  -0.000116   0.003885   0.002616  -0.000369
    16  C   -0.032393   0.389655   0.003856  -0.040594   0.000430  -0.000015
    17  C   -0.000145   0.003880   0.389722  -0.040686  -0.000008   0.000001
    18  H   -0.000052   0.000002  -0.003513  -0.000048   0.000027   0.000001
    19  H    0.473914  -0.003404   0.000002  -0.000043   0.017842  -0.000395
    20  H   -0.003404   0.509179  -0.000053  -0.003733   0.000000  -0.000000
    21  H    0.000002  -0.000053   0.508489  -0.003735   0.000000  -0.000000
    22  H   -0.000043  -0.003733  -0.003735   0.508336  -0.000000  -0.000000
    23  O    0.017842   0.000000   0.000000  -0.000000   8.114695   0.241628
    24  H   -0.000395  -0.000000  -0.000000  -0.000000   0.241628   0.451262
    25  C   -0.000026  -0.000000  -0.000000   0.000000  -0.019858   0.001772
    26  H    0.000406   0.000001   0.000000  -0.000000   0.047861  -0.003153
    27  H    0.000000   0.000000   0.000000  -0.000000   0.000158  -0.000042
    28  H   -0.000003  -0.000001  -0.000002  -0.000000   0.000140   0.000024
    29  C    0.000001  -0.000000   0.000000   0.000000  -0.000035  -0.000016
    30  H   -0.000000   0.000000  -0.000001  -0.000000  -0.000003   0.000003
    31  H    0.000000   0.000000   0.000000  -0.000000  -0.000001  -0.000001
    32  H   -0.000000   0.000000   0.000000  -0.000000   0.000043  -0.000013
              25         26         27         28         29         30
     1  C   -0.010833  -0.003320   0.000076   0.000422  -0.011365  -0.001072
     2  H   -0.000225   0.000760   0.000003   0.000009   0.003404  -0.000833
     3  C   -0.056129  -0.010456   0.003523  -0.001884  -0.061799  -0.002279
     4  C    0.003839  -0.000097   0.000163  -0.000084   0.004213  -0.000098
     5  C    0.003173  -0.000008  -0.000083  -0.000041   0.301613  -0.042616
     6  C    0.298359  -0.035618  -0.042684  -0.044981   0.002995   0.000033
     7  C   -0.065544   0.003254  -0.003802  -0.000465   0.000072   0.000011
     8  C    0.000095   0.000011   0.000004   0.000017  -0.064849   0.001338
     9  H   -0.004739   0.000081   0.004071   0.000243   0.000002  -0.000000
    10  H    0.000002  -0.000000  -0.000000  -0.000000  -0.005558   0.000079
    11  H   -0.000062   0.000000  -0.000002   0.000001  -0.000064   0.000001
    12  C    0.000484  -0.005213   0.000064   0.001692   0.000120   0.000435
    13  C    0.000006  -0.000004  -0.000000   0.000013  -0.000000  -0.000000
    14  C   -0.000606   0.000247   0.000021   0.001196  -0.000420   0.001491
    15  C   -0.000086   0.000875   0.000016   0.000011   0.000003   0.000002
    16  C   -0.000008   0.000028  -0.000000  -0.000026   0.000000  -0.000000
    17  C   -0.000047  -0.000000  -0.000000   0.000105   0.000002  -0.000002
    18  H   -0.000009   0.000001   0.000001   0.000023   0.000068   0.000620
    19  H   -0.000026   0.000406   0.000000  -0.000003   0.000001  -0.000000
    20  H   -0.000000   0.000001   0.000000  -0.000001  -0.000000   0.000000
    21  H   -0.000000   0.000000   0.000000  -0.000002   0.000000  -0.000001
    22  H    0.000000  -0.000000  -0.000000  -0.000000   0.000000  -0.000000
    23  O   -0.019858   0.047861   0.000158   0.000140  -0.000035  -0.000003
    24  H    0.001772  -0.003153  -0.000042   0.000024  -0.000016   0.000003
    25  C    5.445851   0.313144   0.357074   0.359088  -0.000048  -0.000000
    26  H    0.313144   0.499679  -0.018625  -0.021540   0.000001   0.000000
    27  H    0.357074  -0.018625   0.543326  -0.025318   0.000000  -0.000000
    28  H    0.359088  -0.021540  -0.025318   0.510274   0.000001  -0.000000
    29  C   -0.000048   0.000001   0.000000   0.000001   5.350410   0.363683
    30  H   -0.000000   0.000000  -0.000000  -0.000000   0.363683   0.522066
    31  H    0.000000   0.000000  -0.000000  -0.000000   0.364619  -0.025225
    32  H    0.000001  -0.000001  -0.000000   0.000000   0.361644  -0.030140
              31         32
     1  C    0.000343  -0.000158
     2  H    0.000174   0.002825
     3  C    0.003505  -0.001961
     4  C    0.000197  -0.000097
     5  C   -0.040514  -0.043300
     6  C   -0.000063   0.000011
     7  C    0.000003   0.000009
     8  C   -0.002558   0.001152
     9  H   -0.000000  -0.000000
    10  H    0.005133   0.000084
    11  H   -0.000004   0.000001
    12  C   -0.000014  -0.000037
    13  C    0.000000   0.000000
    14  C    0.000001  -0.000004
    15  C   -0.000000   0.000002
    16  C    0.000000  -0.000000
    17  C   -0.000000  -0.000000
    18  H   -0.000009   0.000019
    19  H    0.000000  -0.000000
    20  H    0.000000   0.000000
    21  H    0.000000   0.000000
    22  H   -0.000000  -0.000000
    23  O   -0.000001   0.000043
    24  H   -0.000001  -0.000013
    25  C    0.000000   0.000001
    26  H    0.000000  -0.000001
    27  H   -0.000000  -0.000000
    28  H   -0.000000   0.000000
    29  C    0.364619   0.361644
    30  H   -0.025225  -0.030140
    31  H    0.519015  -0.025172
    32  H   -0.025172   0.532257
 Mulliken charges:
               1
     1  C   -0.084890
     2  H    0.221978
     3  C   -0.033240
     4  C   -0.180696
     5  C    0.010618
     6  C    0.022471
     7  C   -0.186296
     8  C   -0.186851
     9  H    0.179888
    10  H    0.176954
    11  H    0.184032
    12  C    0.020984
    13  C   -0.187281
    14  C   -0.194542
    15  C   -0.183119
    16  C   -0.185661
    17  C   -0.185579
    18  H    0.197996
    19  H    0.208047
    20  H    0.183240
    21  H    0.183524
    22  H    0.182343
    23  O   -0.528789
    24  H    0.347496
    25  C   -0.624664
    26  H    0.231687
    27  H    0.182055
    28  H    0.221087
    29  C   -0.608697
    30  H    0.212506
    31  H    0.200570
    32  H    0.202833
 Sum of Mulliken charges =  -0.00000
 Mulliken charges with hydrogens summed into heavy atoms:
               1
     1  C    0.137088
     3  C   -0.033240
     4  C    0.003336
     5  C    0.010618
     6  C    0.022471
     7  C   -0.006408
     8  C   -0.009897
    12  C    0.020984
    13  C   -0.004939
    14  C    0.003454
    15  C    0.024927
    16  C   -0.002422
    17  C   -0.002055
    23  O   -0.181293
    25  C    0.010164
    29  C    0.007213
 Electronic spatial extent (au):  <R**2>=           3609.5094
 Charge=             -0.0000 electrons
 Dipole moment (field-independent basis, Debye):
    X=             -1.3925    Y=             -0.8534    Z=             -0.0319  Tot=              1.6335
 Quadrupole moment (field-independent basis, Debye-Ang):
   XX=            -89.1422   YY=            -92.6871   ZZ=            -91.5040
   XY=              2.0770   XZ=             -1.1264   YZ=             -0.6699
 Traceless Quadrupole moment (field-independent basis, Debye-Ang):
   XX=              1.9689   YY=             -1.5760   ZZ=             -0.3929
   XY=              2.0770   XZ=             -1.1264   YZ=             -0.6699
 Octapole moment (field-independent basis, Debye-Ang**2):
  XXX=             14.6640  YYY=              2.4683  ZZZ=             18.7920  XYY=            -22.2730
  XXY=              5.4278  XXZ=            -12.4629  XZZ=              1.2805  YZZ=             -6.2318
  YYZ=              5.7491  XYZ=              2.0262
 Hexadecapole moment (field-independent basis, Debye-Ang**3):
 XXXX=          -3009.8146 YYYY=           -922.7657 ZZZZ=           -683.2753 XXXY=             84.7414
 XXXZ=             61.7404 YYYX=             55.5225 YYYZ=            -40.9354 ZZZX=            -56.9959
 ZZZY=            -37.0304 XXYY=           -706.0586 XXZZ=           -626.3417 YYZZ=           -290.2173
 XXYZ=            -16.3282 YYXZ=             14.7191 ZZXY=             23.7989
 N-N= 1.054973819706D+03 E-N=-3.624498960987D+03  KE= 6.472123097300D+02
 No NMR shielding tensors so no spin-rotation constants.
 Leave Link  601 at Wed Oct 19 23:53:50 2016, MaxMem=   536870912 cpu:         1.0
 (Enter /shared/gaussian/g09.d01/intel64-sandybridge/g09/l701.exe)
 Compute integral first derivatives.
 ... and contract with generalized density number  6.
 Leave Link  701 at Wed Oct 19 23:53:51 2016, MaxMem=   536870912 cpu:         1.1
 (Enter /shared/gaussian/g09.d01/intel64-sandybridge/g09/l702.exe)
 L702 exits ... SP integral derivatives will be done elsewhere.
 Leave Link  702 at Wed Oct 19 23:53:51 2016, MaxMem=   536870912 cpu:         0.1
 (Enter /shared/gaussian/g09.d01/intel64-sandybridge/g09/l703.exe)
 Compute integral first derivatives, UseDBF=F ICtDFT=           0.
 Integral derivatives from FoFJK, PRISM(SPDF).
 Calling FoFJK, ICntrl=  10005127 FMM=F ISym2X=0 I1Cent= 0 IOpClX= 0 NMat=1 NMatS=1 NMatT=0.
 FoFJK:  IHMeth= 1 ICntrl=10005127 DoSepK=F KAlg= 0 I1Cent=   0 FoldK=F
 IRaf=         0 NMat=   1 IRICut=       1 DoRegI=T DoRafI=F ISym2E= 0.
 FoFCou: FMM=F IPFlag=           0 FMFlag=      100000 FMFlg1=         800
         NFxFlg=           0 DoJE=F BraDBF=F KetDBF=F FulRan=T
         wScrn=  0.000000 ICntrl=10005127 IOpCl=  0 I1Cent=           0 NGrid=           0
         NMat0=    1 NMatS0=      1 NMatT0=    0 NMatD0=    1 NMtDS0=    0 NMtDT0=    0
 Symmetry not used in FoFCou.
 Leave Link  703 at Wed Oct 19 23:53:54 2016, MaxMem=   536870912 cpu:        28.0
 (Enter /shared/gaussian/g09.d01/intel64-sandybridge/g09/l716.exe)
 Dipole        =-5.49011183D-01-2.83238024D-01-4.90942458D-02
 -------------------------------------------------------------------
 Center     Atomic                   Forces (Hartrees/Bohr)
 Number     Number              X              Y              Z
 -------------------------------------------------------------------
      1        6          -0.010228059   -0.000000907   -0.009159286
      2        1          -0.000000705   -0.000097702   -0.000776231
      3        6           0.033254858   -0.017657628    0.020460039
      4        6          -0.025899393    0.009390004   -0.013718738
      5        6           0.003124885   -0.033064756   -0.000336311
      6        6           0.021362931    0.022458918    0.011848953
      7        6          -0.005350145    0.024822773   -0.001926557
      8        6          -0.016529365   -0.011571929   -0.009167845
      9        1           0.000152468   -0.000540813   -0.000034777
     10        1           0.000308680    0.000299301    0.000205244
     11        1           0.000840152   -0.000378177    0.000400293
     12        6           0.001438191    0.001013708    0.001835775
     13        6           0.000251649    0.000030408   -0.000331998
     14        6           0.000086845    0.000026567   -0.000498330
     15        6           0.001025726    0.000490598   -0.000080680
     16        6           0.000186592    0.000114876    0.000503014
     17        6          -0.000239957    0.000082367   -0.000277918
     18        1          -0.000260489   -0.000283900    0.000298233
     19        1          -0.000073802   -0.000057257   -0.000004103
     20        1           0.000113167   -0.000001004   -0.000011816
     21        1           0.000033493    0.000014057   -0.000018836
     22        1           0.000020840    0.000011627    0.000001414
     23        8           0.004371644    0.003088668    0.004858397
     24        1          -0.001564479   -0.000306689    0.000038663
     25        6          -0.009946196   -0.004688599   -0.003606527
     26        1           0.002050421   -0.002539840    0.000964228
     27        1          -0.000454282    0.000681042   -0.000965410
     28        1           0.003214135    0.001025800   -0.000859877
     29        6          -0.005521310    0.009397632   -0.002128256
     30        1           0.003132526   -0.000618990    0.000322401
     31        1          -0.000146422    0.000049330   -0.000010501
     32        1           0.001245399   -0.001189486    0.002177347
 -------------------------------------------------------------------
 Cartesian Forces:  Max     0.033254858 RMS     0.008343172
 Z-matrix is all fixed cartesians, so copy forces.
 Leave Link  716 at Wed Oct 19 23:53:54 2016, MaxMem=   536870912 cpu:         0.2
 (Enter /shared/gaussian/g09.d01/intel64-sandybridge/g09/l103.exe)

 GradGradGradGradGradGradGradGradGradGradGradGradGradGradGradGradGradGrad
 Berny optimization.
 Search for a local minimum.
 Step number   1 out of a maximum of    2
 All quantities printed in internal units (Hartrees-Bohrs-Radians)
 Second derivative matrix not updated -- first step.
 ITU=  0
     Eigenvalues ---    0.00015   0.00034   0.00073   0.00203   0.00231
     Eigenvalues ---    0.00266   0.00344   0.00555   0.00705   0.00708
     Eigenvalues ---    0.00931   0.01271   0.01605   0.01627   0.02196
     Eigenvalues ---    0.02283   0.02582   0.02725   0.03462   0.03484
     Eigenvalues ---    0.03794   0.04100   0.04360   0.05237   0.05866
     Eigenvalues ---    0.06481   0.06886   0.06928   0.06991   0.07034
     Eigenvalues ---    0.07167   0.07235   0.07519   0.08268   0.08577
     Eigenvalues ---    0.09675   0.11046   0.11759   0.12399   0.12559
     Eigenvalues ---    0.12855   0.13063   0.13266   0.13389   0.13644
     Eigenvalues ---    0.14247   0.16890   0.17382   0.18348   0.21934
     Eigenvalues ---    0.24179   0.28605   0.29256   0.29822   0.29942
     Eigenvalues ---    0.30047   0.31162   0.31224   0.34673   0.42135
     Eigenvalues ---    0.43114   0.43411   0.46440   0.54337   0.56544
     Eigenvalues ---    0.64169   0.68877   0.73702   0.78312   0.80475
     Eigenvalues ---    0.87552   0.89800   0.90745   0.93474   0.94512
     Eigenvalues ---    0.98996   1.02378   1.05294   1.10498   1.12110
     Eigenvalues ---    1.22037   1.23606   1.24629   1.26686   1.45159
     Eigenvalues ---    1.47103   1.57820   1.58597   1.58913   1.59921
 Quadratic step=1.511D+00 exceeds max=3.000D-01 adjusted using Lamda=-2.334D-03.
 Angle between NR and scaled steps=  56.51 degrees.
 Angle between quadratic step and forces=  62.87 degrees.
 Linear search not attempted -- first point.
 TrRot=  0.000805 -0.000268  0.002132 -1.516228  0.000439  1.516518
 Variable       Old X    -DE/DX   Delta X   Delta X   Delta X     New X
                                 (Linear)    (Quad)   (Total)
    X1        0.24306  -0.01023   0.00000   0.02288   0.02408   0.26714
    Y1       -1.17616  -0.00000   0.00000  -0.02926  -0.03030  -1.20646
    Z1        1.91308  -0.00916   0.00000   0.01431   0.01591   1.92899
    X2        0.01974  -0.00000   0.00000   0.03487   0.03667   0.05641
    Y2       -3.22664  -0.00010   0.00000  -0.03259  -0.03377  -3.26041
    Z2        2.12215  -0.00078   0.00000  -0.00696  -0.00626   2.11589
    X3       -2.11633   0.03325   0.00000   0.03349   0.03437  -2.08196
    Y3       -0.14016  -0.01766   0.00000  -0.04197  -0.04313  -0.18329
    Z3        0.61193   0.02046   0.00000   0.04361   0.04571   0.65765
    X4       -6.51669  -0.02590   0.00000  -0.07578  -0.07553  -6.59222
    Y4        1.71776   0.00939   0.00000   0.04102   0.03960   1.75737
    Z4       -1.70002  -0.01372   0.00000  -0.04433  -0.04127  -1.74129
    X5       -3.93055   0.00312   0.00000  -0.02415  -0.02281  -3.95336
    Y5       -1.83449  -0.03306   0.00000  -0.05204  -0.05329  -1.88778
    Z5       -0.37351  -0.00034   0.00000   0.00026   0.00166  -0.37185
    X6       -2.50716   0.02136   0.00000   0.01844   0.01853  -2.48863
    Y6        2.49441   0.02246   0.00000   0.01954   0.01836   2.51277
    Z6        0.40558   0.01185   0.00000   0.01650   0.01980   0.42538
    X7       -4.72028  -0.00535   0.00000  -0.02784  -0.02805  -4.74833
    Y7        3.38449   0.02482   0.00000   0.05331   0.05200   3.43648
    Z7       -0.73957  -0.00193   0.00000  -0.01013  -0.00638  -0.74595
    X8       -6.11292  -0.01653   0.00000  -0.06036  -0.05933  -6.17225
    Y8       -0.87706  -0.01157   0.00000  -0.00688  -0.00826  -0.88532
    Z8       -1.52612  -0.00917   0.00000  -0.03435  -0.03246  -1.55859
    X9       -5.01847   0.00015   0.00000  -0.00905  -0.00985  -5.02832
    Y9        5.40773  -0.00054   0.00000   0.05414   0.05280   5.46053
    Z9       -0.87913  -0.00003   0.00000  -0.01013  -0.00548  -0.88462
   X10       -7.49929   0.00031   0.00000  -0.05922  -0.05783  -7.55713
   Y10       -2.18415   0.00030   0.00000  -0.00244  -0.00388  -2.18804
   Z10       -2.28081   0.00021   0.00000  -0.03948  -0.03813  -2.31894
   X11       -8.22022   0.00084   0.00000  -0.06710  -0.06708  -8.28730
   Y11        2.43594  -0.00038   0.00000   0.04555   0.04403   2.47997
   Z11       -2.58299   0.00040   0.00000  -0.04944  -0.04602  -2.62901
   X12        2.66827   0.00144   0.00000   0.02393   0.02495   2.69322
   Y12       -0.72796   0.00101   0.00000   0.00073   0.00105  -0.72691
   Z12        0.42012   0.00184   0.00000   0.01651   0.01825   0.43837
   X13        7.20252   0.00025   0.00000   0.01194   0.01274   7.21526
   Y13       -0.18209   0.00003   0.00000   0.02319   0.02601  -0.15608
   Z13       -2.26766  -0.00033   0.00000  -0.00208  -0.00019  -2.26785
   X14        2.68365   0.00009   0.00000   0.01634   0.01735   2.70101
   Y14       -0.89524   0.00003   0.00000  -0.00385  -0.00237  -0.89760
   Z14       -2.21932  -0.00050   0.00000   0.01591   0.01759  -2.20173
   X15        4.93436   0.00103   0.00000   0.02704   0.02796   4.96233
   Y15       -0.27777   0.00049   0.00000   0.01923   0.01965  -0.25812
   Z15        1.70636  -0.00008   0.00000   0.00785   0.00975   1.71611
   X16        7.18886   0.00019   0.00000   0.02111   0.02191   7.21077
   Y16       -0.00201   0.00011   0.00000   0.02776   0.02943   0.02741
   Z16        0.36618   0.00050   0.00000  -0.00104   0.00093   0.36711
   X17        4.94241  -0.00024   0.00000   0.00902   0.00992   4.95233
   Y17       -0.62739   0.00008   0.00000   0.00986   0.01259  -0.61480
   Z17       -3.55682  -0.00028   0.00000   0.00605   0.00779  -3.54903
   X18        0.92241  -0.00026   0.00000   0.01296   0.01404   0.93646
   Y18       -1.19928  -0.00028   0.00000  -0.02450  -0.02309  -1.22237
   Z18       -3.21957   0.00030   0.00000   0.02715   0.02872  -3.19085
   X19        4.88987  -0.00007   0.00000   0.03212   0.03305   4.92292
   Y19       -0.12942  -0.00006   0.00000   0.01932   0.01884  -0.11058
   Z19        3.74317  -0.00000   0.00000   0.00787   0.00984   3.75300
   X20        8.93444   0.00011   0.00000   0.02385   0.02457   8.95901
   Y20        0.35623  -0.00000   0.00000   0.03525   0.03698   0.39320
   Z20        1.37759  -0.00001   0.00000  -0.00823  -0.00614   1.37146
   X21        4.93406   0.00003   0.00000   0.00244   0.00332   4.93738
   Y21       -0.75371   0.00001   0.00000   0.00573   0.00935  -0.74436
   Z21       -5.60167  -0.00002   0.00000   0.00623   0.00791  -5.59376
   X22        8.95500   0.00002   0.00000   0.00741   0.00812   8.96312
   Y22        0.03089   0.00001   0.00000   0.02831   0.03209   0.06298
   Z22       -3.30676   0.00000   0.00000  -0.00860  -0.00665  -3.31341
   X23        0.65231   0.00437   0.00000   0.04661   0.04756   0.69987
   Y23       -0.09228   0.00309   0.00000  -0.02953  -0.03156  -0.12384
   Z23        4.45048   0.00486   0.00000   0.02897   0.03103   4.48151
   X24       -0.97957  -0.00156   0.00000   0.03669   0.03770  -0.94188
   Y24       -0.24621  -0.00031   0.00000  -0.01467  -0.01758  -0.26379
   Z24        5.37100   0.00004   0.00000   0.01995   0.02199   5.39299
   X25       -0.55448  -0.00995   0.00000   0.01468   0.01425  -0.54023
   Y25        4.38420  -0.00469   0.00000  -0.00082  -0.00183   4.38238
   Z25        1.34032  -0.00361   0.00000  -0.02185  -0.01778   1.32254
   X26        0.37203   0.00205   0.00000   0.03943   0.03926   0.41129
   Y26        3.64824  -0.00254   0.00000  -0.02837  -0.02983   3.61841
   Z26        3.02521   0.00096   0.00000  -0.03830  -0.03459   2.99062
   X27       -1.44521  -0.00045   0.00000   0.02137   0.02041  -1.42480
   Y27        6.20676   0.00068   0.00000   0.00245   0.00101   6.20777
   Z27        1.74459  -0.00097   0.00000  -0.01249  -0.00760   1.73699
   X28        0.89798   0.00321   0.00000   0.01994   0.01939   0.91737
   Y28        4.67406   0.00103   0.00000   0.00739   0.00744   4.68150
   Z28       -0.11061  -0.00086   0.00000  -0.02724  -0.02308  -0.13369
   X29       -3.58719  -0.00552   0.00000  -0.05167  -0.04950  -3.63669
   Y29       -4.69363   0.00940   0.00000  -0.02833  -0.02954  -4.72317
   Z29       -0.24754  -0.00213   0.00000   0.00311   0.00326  -0.24428
   X30       -1.84360   0.00313   0.00000  -0.01275  -0.01043  -1.85402
   Y30       -5.29611  -0.00062   0.00000  -0.03007  -0.03038  -5.32648
   Z30       -1.18983   0.00032   0.00000   0.05865   0.05849  -1.13133
   X31       -5.17124  -0.00015   0.00000  -0.02994  -0.02753  -5.19876
   Y31       -5.63070   0.00005   0.00000  -0.02548  -0.02672  -5.65742
   Z31       -1.18937  -0.00001   0.00000  -0.03612  -0.03635  -1.22572
   X32       -3.52635   0.00125   0.00000  -0.08463  -0.08222  -3.60857
   Y32       -5.37537  -0.00119   0.00000  -0.03363  -0.03570  -5.41107
   Z32        1.70922   0.00218   0.00000   0.00990   0.00974   1.71896
         Item               Value     Threshold  Converged?
 Maximum Force            0.033255     0.000450     NO 
 RMS     Force            0.008343     0.000300     NO 
 Maximum Displacement     0.082218     0.001800     NO 
 RMS     Displacement     0.030577     0.001200     NO 
 Predicted change in Energy=-5.700855D-03
 GradGradGradGradGradGradGradGradGradGradGradGradGradGradGradGradGradGrad

 Leave Link  103 at Wed Oct 19 23:53:54 2016, MaxMem=   536870912 cpu:         0.2
 (Enter /shared/gaussian/g09.d01/intel64-sandybridge/g09/l9999.exe)
 1\1\GINC-SOLE1\Force\RB3LYP TD-FC\3-21G\C15H16O1\DANIELE\19-Oct-2016\0
 \\#p force td=root=1 b3lyp 3-21G nosymm\\MeMe_M0001\\0,1\C,0.12862,-0.
 622398,1.01236\H,0.010448,-1.707464,1.122992\C,-1.119912,-0.07417,0.32
 3822\C,-3.448484,0.909002,-0.89961\C,-2.079956,-0.970772,-0.197652\C,-
 1.326733,1.319984,0.214626\C,-2.497863,1.790994,-0.391366\C,-3.234818,
 -0.464119,-0.80759\H,-2.655659,2.861645,-0.465218\H,-3.968455,-1.15580
 3,-1.206953\H,-4.349954,1.289043,-1.366858\C,1.411986,-0.385218,0.2223
 16\C,3.811408,-0.09636,-1.199996\C,1.420127,-0.473739,-1.174411\C,2.61
 1153,-0.14699,0.902969\C,3.80418,-0.001066,0.193776\C,2.615412,-0.3319
 98,-1.882189\H,0.48812,-0.634632,-1.703723\H,2.587607,-0.068484,1.9807
 99\H,4.727904,0.188507,0.728991\H,2.61099,-0.398846,-2.964278\H,4.7387
 84,0.016345,-1.749862\O,0.345188,-0.048832,2.35509\H,-0.518367,-0.1302
 91,2.842209\C,-0.293418,2.32002,0.709267\H,0.19687,1.930563,1.600872\H
 ,-0.764774,3.284477,0.923195\H,0.47519,2.473406,-0.058532\C,-1.898258,
 -2.483762,-0.130995\H,-0.975589,-2.802579,-0.62963\H,-2.7365,-2.979639
 ,-0.629386\H,-1.866066,-2.844521,0.904478\\Version=ES64L-G09RevD.01\HF
 =-652.8572799\RMSD=7.354e-09\RMSF=8.343e-03\Dipole=-0.5490112,-0.28323
 8,-0.0490942\PG=C01 [X(C15H16O1)]\\@


 A MUSTACHE HAIR ACROSS A CHIP IS LIKE A REDWOOD
 TREE FALLING THROUGH A HOUSING PROJECT.
 - AN IBM MANAGER IN EAST FISHKILL, NEW YORK
   AS QUOTED IN "FROM SANDS TO CIRCUITS", IBM INNOVATION JANUARY 1985.
 Job cpu time:       0 days  0 hours 14 minutes 48.7 seconds.
 File lengths (MBytes):  RWF=     68 Int=      0 D2E=      0 Chk=      7 Scr=      1
 Normal termination of Gaussian 09 at Wed Oct 19 23:53:54 2016.
