 Entering Gaussian System, Link 0=/shared/gaussian/g09.d01/intel64-sandybridge/g09/g09
 Initial command:
 /shared/gaussian/g09.d01/intel64-sandybridge/g09/l1.exe "/scratch/daniele/SCRGAU.234254.MeMe_M0001_freq/Gau-22945.inp" -scrdir="/scratch/daniele/SCRGAU.234254.MeMe_M0001_freq/"
 Entering Link 1 = /shared/gaussian/g09.d01/intel64-sandybridge/g09/l1.exe PID=     22946.
  
 Copyright (c) 1988,1990,1992,1993,1995,1998,2003,2009,2013,
            Gaussian, Inc.  All Rights Reserved.
  
 This is part of the Gaussian(R) 09 program.  It is based on
 the Gaussian(R) 03 system (copyright 2003, Gaussian, Inc.),
 the Gaussian(R) 98 system (copyright 1998, Gaussian, Inc.),
 the Gaussian(R) 94 system (copyright 1995, Gaussian, Inc.),
 the Gaussian 92(TM) system (copyright 1992, Gaussian, Inc.),
 the Gaussian 90(TM) system (copyright 1990, Gaussian, Inc.),
 the Gaussian 88(TM) system (copyright 1988, Gaussian, Inc.),
 the Gaussian 86(TM) system (copyright 1986, Carnegie Mellon
 University), and the Gaussian 82(TM) system (copyright 1983,
 Carnegie Mellon University). Gaussian is a federally registered
 trademark of Gaussian, Inc.
  
 This software contains proprietary and confidential information,
 including trade secrets, belonging to Gaussian, Inc.
  
 This software is provided under written license and may be
 used, copied, transmitted, or stored only in accord with that
 written license.
  
 The following legend is applicable only to US Government
 contracts under FAR:
  
                    RESTRICTED RIGHTS LEGEND
  
 Use, reproduction and disclosure by the US Government is
 subject to restrictions as set forth in subparagraphs (a)
 and (c) of the Commercial Computer Software - Restricted
 Rights clause in FAR 52.227-19.
  
 Gaussian, Inc.
 340 Quinnipiac St., Bldg. 40, Wallingford CT 06492
  
  
 ---------------------------------------------------------------
 Warning -- This program may not be used in any manner that
 competes with the business of Gaussian, Inc. or will provide
 assistance to any competitor of Gaussian, Inc.  The licensee
 of this program is prohibited from giving any competitor of
 Gaussian, Inc. access to this program.  By using this program,
 the user acknowledges that Gaussian, Inc. is engaged in the
 business of creating and licensing software in the field of
 computational chemistry and represents and warrants to the
 licensee that it is not a competitor of Gaussian, Inc. and that
 it will not use this program in any manner prohibited above.
 ---------------------------------------------------------------
  

 Cite this work as:
 Gaussian 09, Revision D.01,
 M. J. Frisch, G. W. Trucks, H. B. Schlegel, G. E. Scuseria, 
 M. A. Robb, J. R. Cheeseman, G. Scalmani, V. Barone, B. Mennucci, 
 G. A. Petersson, H. Nakatsuji, M. Caricato, X. Li, H. P. Hratchian, 
 A. F. Izmaylov, J. Bloino, G. Zheng, J. L. Sonnenberg, M. Hada, 
 M. Ehara, K. Toyota, R. Fukuda, J. Hasegawa, M. Ishida, T. Nakajima, 
 Y. Honda, O. Kitao, H. Nakai, T. Vreven, J. A. Montgomery, Jr., 
 J. E. Peralta, F. Ogliaro, M. Bearpark, J. J. Heyd, E. Brothers, 
 K. N. Kudin, V. N. Staroverov, T. Keith, R. Kobayashi, J. Normand, 
 K. Raghavachari, A. Rendell, J. C. Burant, S. S. Iyengar, J. Tomasi, 
 M. Cossi, N. Rega, J. M. Millam, M. Klene, J. E. Knox, J. B. Cross, 
 V. Bakken, C. Adamo, J. Jaramillo, R. Gomperts, R. E. Stratmann, 
 O. Yazyev, A. J. Austin, R. Cammi, C. Pomelli, J. W. Ochterski, 
 R. L. Martin, K. Morokuma, V. G. Zakrzewski, G. A. Voth, 
 P. Salvador, J. J. Dannenberg, S. Dapprich, A. D. Daniels, 
 O. Farkas, J. B. Foresman, J. V. Ortiz, J. Cioslowski, 
 and D. J. Fox, Gaussian, Inc., Wallingford CT, 2013.
 
 ******************************************
 Gaussian 09:  ES64L-G09RevD.01 24-Apr-2013
                19-Oct-2016 
 ******************************************
 %nprocshared=8
 Will use up to    8 processors via shared memory.
 %chk=MeMe_00001_freq.chk
 %mem=4GB
 --------------------------------------
 #p opt freq=hpmodes b3lyp 3-21G nosymm
 --------------------------------------
 1/14=-1,18=20,19=15,26=3,38=1/1,3;
 2/9=110,12=2,15=1,17=6,18=5,40=1/2;
 3/5=5,11=2,16=1,25=1,30=1,71=1,74=-5/1,2,3;
 4//1;
 5/5=2,38=5/2;
 6/7=2,8=2,9=2,10=2,28=1/1;
 7/30=1/1,2,3,16;
 1/14=-1,18=20,19=15,26=3/3(2);
 2/9=110,15=1/2;
 99//99;
 2/9=110,15=1/2;
 3/5=5,11=2,16=1,25=1,30=1,71=1,74=-5/1,2,3;
 4/5=5,16=3,69=1/1;
 5/5=2,38=5/2;
 7/30=1/1,2,3,16;
 1/14=-1,18=20,19=15,26=3/3(-5);
 2/9=110,15=1/2;
 6/7=2,8=2,9=2,10=2,19=2,28=1/1;
 99/9=1/99;
 Leave Link    1 at Wed Oct 19 23:42:54 2016, MaxMem=   536870912 cpu:         0.3
 (Enter /shared/gaussian/g09.d01/intel64-sandybridge/g09/l101.exe)
 ----------
 MeMe_M0001
 ----------
 Symbolic Z-matrix:
 Charge =  0 Multiplicity = 1
 C                     0.12558  -0.72597   0.96074 
 H                     0.03364  -1.81632   0.94825 
 C                    -1.11201  -0.13009   0.30275 
 C                    -3.41292   0.944    -0.85967 
 C                    -2.13261  -0.98167  -0.15365 
 C                    -1.24153   1.26524   0.16427 
 C                    -2.40075   1.77952  -0.41218 
 C                    -3.2747   -0.42818  -0.73299 
 H                    -2.50509   2.85475  -0.51496 
 H                    -4.06313  -1.08485  -1.08554 
 H                    -4.30746   1.36271  -1.3071 
 C                     1.41696  -0.40832   0.22995 
 C                     3.7933    0.10102  -1.15022 
 C                     1.46003  -0.49626  -1.16101 
 C                     2.57416  -0.07057   0.92448 
 C                     3.75494   0.18647   0.23587 
 C                     2.64027  -0.24376  -1.8476 
 H                     0.55786  -0.74305  -1.71201 
 H                     2.54016   0.00363   2.00385 
 H                     4.64871   0.45623   0.78762 
 H                     2.65779  -0.30942  -2.92981 
 H                     4.71419   0.30417  -1.68499 
 O                     0.2528   -0.31558   2.31997 
 H                    -0.59707  -0.44286   2.74366 
 C                    -0.15674   2.22556   0.58607 
 H                     0.25833   1.96805   1.56025 
 H                    -0.54795   3.24385   0.62671 
 H                     0.66937   2.20924  -0.1309 
 C                    -2.03774  -2.48764  -0.05067 
 H                    -1.1815   -2.88233  -0.60496 
 H                    -2.93602  -2.95042  -0.46207 
 H                    -1.9417   -2.82485   0.98541 
 
 NAtoms=     32 NQM=       32 NQMF=       0 NMMI=      0 NMMIF=      0
                NMic=       0 NMicF=      0.
                    Isotopes and Nuclear Properties:
 (Nuclear quadrupole moments (NQMom) in fm**2, nuclear magnetic moments (NMagM)
  in nuclear magnetons)

  Atom         1           2           3           4           5           6           7           8           9          10
 IAtWgt=          12           1          12          12          12          12          12          12           1           1
 AtmWgt=  12.0000000   1.0078250  12.0000000  12.0000000  12.0000000  12.0000000  12.0000000  12.0000000   1.0078250   1.0078250
 NucSpn=           0           1           0           0           0           0           0           0           1           1
 AtZEff=   0.0000000   0.0000000   0.0000000   0.0000000   0.0000000   0.0000000   0.0000000   0.0000000   0.0000000   0.0000000
 NQMom=    0.0000000   0.0000000   0.0000000   0.0000000   0.0000000   0.0000000   0.0000000   0.0000000   0.0000000   0.0000000
 NMagM=    0.0000000   2.7928460   0.0000000   0.0000000   0.0000000   0.0000000   0.0000000   0.0000000   2.7928460   2.7928460
 AtZNuc=   6.0000000   1.0000000   6.0000000   6.0000000   6.0000000   6.0000000   6.0000000   6.0000000   1.0000000   1.0000000

  Atom        11          12          13          14          15          16          17          18          19          20
 IAtWgt=           1          12          12          12          12          12          12           1           1           1
 AtmWgt=   1.0078250  12.0000000  12.0000000  12.0000000  12.0000000  12.0000000  12.0000000   1.0078250   1.0078250   1.0078250
 NucSpn=           1           0           0           0           0           0           0           1           1           1
 AtZEff=   0.0000000   0.0000000   0.0000000   0.0000000   0.0000000   0.0000000   0.0000000   0.0000000   0.0000000   0.0000000
 NQMom=    0.0000000   0.0000000   0.0000000   0.0000000   0.0000000   0.0000000   0.0000000   0.0000000   0.0000000   0.0000000
 NMagM=    2.7928460   0.0000000   0.0000000   0.0000000   0.0000000   0.0000000   0.0000000   2.7928460   2.7928460   2.7928460
 AtZNuc=   1.0000000   6.0000000   6.0000000   6.0000000   6.0000000   6.0000000   6.0000000   1.0000000   1.0000000   1.0000000

  Atom        21          22          23          24          25          26          27          28          29          30
 IAtWgt=           1           1          16           1          12           1           1           1          12           1
 AtmWgt=   1.0078250   1.0078250  15.9949146   1.0078250  12.0000000   1.0078250   1.0078250   1.0078250  12.0000000   1.0078250
 NucSpn=           1           1           0           1           0           1           1           1           0           1
 AtZEff=   0.0000000   0.0000000   0.0000000   0.0000000   0.0000000   0.0000000   0.0000000   0.0000000   0.0000000   0.0000000
 NQMom=    0.0000000   0.0000000   0.0000000   0.0000000   0.0000000   0.0000000   0.0000000   0.0000000   0.0000000   0.0000000
 NMagM=    2.7928460   2.7928460   0.0000000   2.7928460   0.0000000   2.7928460   2.7928460   2.7928460   0.0000000   2.7928460
 AtZNuc=   1.0000000   1.0000000   8.0000000   1.0000000   6.0000000   1.0000000   1.0000000   1.0000000   6.0000000   1.0000000

  Atom        31          32
 IAtWgt=           1           1
 AtmWgt=   1.0078250   1.0078250
 NucSpn=           1           1
 AtZEff=   0.0000000   0.0000000
 NQMom=    0.0000000   0.0000000
 NMagM=    2.7928460   2.7928460
 AtZNuc=   1.0000000   1.0000000
 Leave Link  101 at Wed Oct 19 23:42:54 2016, MaxMem=   536870912 cpu:         1.2
 (Enter /shared/gaussian/g09.d01/intel64-sandybridge/g09/l103.exe)

 GradGradGradGradGradGradGradGradGradGradGradGradGradGradGradGradGradGrad
 Berny optimization.
 Initialization pass.
                           ----------------------------
                           !    Initial Parameters    !
                           ! (Angstroms and Degrees)  !
 --------------------------                            --------------------------
 ! Name  Definition              Value          Derivative Info.                !
 --------------------------------------------------------------------------------
 ! R1    R(1,2)                  1.0943         estimate D2E/DX2                !
 ! R2    R(1,3)                  1.523          estimate D2E/DX2                !
 ! R3    R(1,12)                 1.5174         estimate D2E/DX2                !
 ! R4    R(1,23)                 1.4255         estimate D2E/DX2                !
 ! R5    R(3,5)                  1.4054         estimate D2E/DX2                !
 ! R6    R(3,6)                  1.4082         estimate D2E/DX2                !
 ! R7    R(4,7)                  1.3867         estimate D2E/DX2                !
 ! R8    R(4,8)                  1.3849         estimate D2E/DX2                !
 ! R9    R(4,11)                 1.0843         estimate D2E/DX2                !
 ! R10   R(5,8)                  1.3951         estimate D2E/DX2                !
 ! R11   R(5,29)                 1.5125         estimate D2E/DX2                !
 ! R12   R(6,7)                  1.393          estimate D2E/DX2                !
 ! R13   R(6,25)                 1.5089         estimate D2E/DX2                !
 ! R14   R(7,9)                  1.0852         estimate D2E/DX2                !
 ! R15   R(8,10)                 1.085          estimate D2E/DX2                !
 ! R16   R(12,14)                1.3944         estimate D2E/DX2                !
 ! R17   R(12,15)                1.3912         estimate D2E/DX2                !
 ! R18   R(13,16)                1.3893         estimate D2E/DX2                !
 ! R19   R(13,17)                1.3909         estimate D2E/DX2                !
 ! R20   R(13,22)                1.0841         estimate D2E/DX2                !
 ! R21   R(14,17)                1.3886         estimate D2E/DX2                !
 ! R22   R(14,18)                1.0855         estimate D2E/DX2                !
 ! R23   R(15,16)                1.3909         estimate D2E/DX2                !
 ! R24   R(15,19)                1.0825         estimate D2E/DX2                !
 ! R25   R(16,20)                1.0844         estimate D2E/DX2                !
 ! R26   R(17,21)                1.0843         estimate D2E/DX2                !
 ! R27   R(23,24)                0.9581         estimate D2E/DX2                !
 ! R28   R(25,26)                1.0898         estimate D2E/DX2                !
 ! R29   R(25,27)                1.0916         estimate D2E/DX2                !
 ! R30   R(25,28)                1.094          estimate D2E/DX2                !
 ! R31   R(29,30)                1.0937         estimate D2E/DX2                !
 ! R32   R(29,31)                1.091          estimate D2E/DX2                !
 ! R33   R(29,32)                1.0938         estimate D2E/DX2                !
 ! A1    A(2,1,3)              108.4589         estimate D2E/DX2                !
 ! A2    A(2,1,12)             105.9374         estimate D2E/DX2                !
 ! A3    A(2,1,23)             107.7725         estimate D2E/DX2                !
 ! A4    A(3,1,12)             113.676          estimate D2E/DX2                !
 ! A5    A(3,1,23)             111.8278         estimate D2E/DX2                !
 ! A6    A(12,1,23)            108.8435         estimate D2E/DX2                !
 ! A7    A(1,3,5)              119.5599         estimate D2E/DX2                !
 ! A8    A(1,3,6)              120.3247         estimate D2E/DX2                !
 ! A9    A(5,3,6)              120.1119         estimate D2E/DX2                !
 ! A10   A(7,4,8)              119.6455         estimate D2E/DX2                !
 ! A11   A(7,4,11)             120.177          estimate D2E/DX2                !
 ! A12   A(8,4,11)             120.1775         estimate D2E/DX2                !
 ! A13   A(3,5,8)              119.2721         estimate D2E/DX2                !
 ! A14   A(3,5,29)             122.3893         estimate D2E/DX2                !
 ! A15   A(8,5,29)             118.3369         estimate D2E/DX2                !
 ! A16   A(3,6,7)              118.8847         estimate D2E/DX2                !
 ! A17   A(3,6,25)             122.4806         estimate D2E/DX2                !
 ! A18   A(7,6,25)             118.6174         estimate D2E/DX2                !
 ! A19   A(4,7,6)              121.2318         estimate D2E/DX2                !
 ! A20   A(4,7,9)              119.7542         estimate D2E/DX2                !
 ! A21   A(6,7,9)              119.0132         estimate D2E/DX2                !
 ! A22   A(4,8,5)              120.8483         estimate D2E/DX2                !
 ! A23   A(4,8,10)             119.8301         estimate D2E/DX2                !
 ! A24   A(5,8,10)             119.3215         estimate D2E/DX2                !
 ! A25   A(1,12,14)            119.5703         estimate D2E/DX2                !
 ! A26   A(1,12,15)            121.2156         estimate D2E/DX2                !
 ! A27   A(14,12,15)           119.1831         estimate D2E/DX2                !
 ! A28   A(16,13,17)           119.5106         estimate D2E/DX2                !
 ! A29   A(16,13,22)           120.2709         estimate D2E/DX2                !
 ! A30   A(17,13,22)           120.2183         estimate D2E/DX2                !
 ! A31   A(12,14,17)           120.5323         estimate D2E/DX2                !
 ! A32   A(12,14,18)           119.6697         estimate D2E/DX2                !
 ! A33   A(17,14,18)           119.7846         estimate D2E/DX2                !
 ! A34   A(12,15,16)           120.2549         estimate D2E/DX2                !
 ! A35   A(12,15,19)           119.2296         estimate D2E/DX2                !
 ! A36   A(16,15,19)           120.5095         estimate D2E/DX2                !
 ! A37   A(13,16,15)           120.4007         estimate D2E/DX2                !
 ! A38   A(13,16,20)           120.0107         estimate D2E/DX2                !
 ! A39   A(15,16,20)           119.5886         estimate D2E/DX2                !
 ! A40   A(13,17,14)           120.1165         estimate D2E/DX2                !
 ! A41   A(13,17,21)           120.1326         estimate D2E/DX2                !
 ! A42   A(14,17,21)           119.7494         estimate D2E/DX2                !
 ! A43   A(1,23,24)            107.7121         estimate D2E/DX2                !
 ! A44   A(6,25,26)            111.9202         estimate D2E/DX2                !
 ! A45   A(6,25,27)            110.2697         estimate D2E/DX2                !
 ! A46   A(6,25,28)            110.499          estimate D2E/DX2                !
 ! A47   A(26,25,27)           108.8831         estimate D2E/DX2                !
 ! A48   A(26,25,28)           107.1412         estimate D2E/DX2                !
 ! A49   A(27,25,28)           107.9951         estimate D2E/DX2                !
 ! A50   A(5,29,30)            111.9585         estimate D2E/DX2                !
 ! A51   A(5,29,31)            110.1839         estimate D2E/DX2                !
 ! A52   A(5,29,32)            112.1464         estimate D2E/DX2                !
 ! A53   A(30,29,31)           107.4814         estimate D2E/DX2                !
 ! A54   A(30,29,32)           107.4613         estimate D2E/DX2                !
 ! A55   A(31,29,32)           107.3796         estimate D2E/DX2                !
 ! D1    D(2,1,3,5)              1.7969         estimate D2E/DX2                !
 ! D2    D(2,1,3,6)           -178.8753         estimate D2E/DX2                !
 ! D3    D(12,1,3,5)           119.3419         estimate D2E/DX2                !
 ! D4    D(12,1,3,6)           -61.3303         estimate D2E/DX2                !
 ! D5    D(23,1,3,5)          -116.911          estimate D2E/DX2                !
 ! D6    D(23,1,3,6)            62.4168         estimate D2E/DX2                !
 ! D7    D(2,1,12,14)           75.66           estimate D2E/DX2                !
 ! D8    D(2,1,12,15)         -102.2992         estimate D2E/DX2                !
 ! D9    D(3,1,12,14)          -43.3364         estimate D2E/DX2                !
 ! D10   D(3,1,12,15)          138.7044         estimate D2E/DX2                !
 ! D11   D(23,1,12,14)        -168.69           estimate D2E/DX2                !
 ! D12   D(23,1,12,15)          13.3508         estimate D2E/DX2                !
 ! D13   D(2,1,23,24)          -71.0411         estimate D2E/DX2                !
 ! D14   D(3,1,23,24)           48.0734         estimate D2E/DX2                !
 ! D15   D(12,1,23,24)         174.4982         estimate D2E/DX2                !
 ! D16   D(1,3,5,8)            178.8188         estimate D2E/DX2                !
 ! D17   D(1,3,5,29)            -1.6512         estimate D2E/DX2                !
 ! D18   D(6,3,5,8)             -0.5104         estimate D2E/DX2                !
 ! D19   D(6,3,5,29)           179.0196         estimate D2E/DX2                !
 ! D20   D(1,3,6,7)           -178.4265         estimate D2E/DX2                !
 ! D21   D(1,3,6,25)             3.1111         estimate D2E/DX2                !
 ! D22   D(5,3,6,7)              0.8975         estimate D2E/DX2                !
 ! D23   D(5,3,6,25)          -177.5648         estimate D2E/DX2                !
 ! D24   D(8,4,7,6)              0.0415         estimate D2E/DX2                !
 ! D25   D(8,4,7,9)            179.7031         estimate D2E/DX2                !
 ! D26   D(11,4,7,6)          -179.9091         estimate D2E/DX2                !
 ! D27   D(11,4,7,9)            -0.2475         estimate D2E/DX2                !
 ! D28   D(7,4,8,5)              0.3625         estimate D2E/DX2                !
 ! D29   D(7,4,8,10)          -179.7681         estimate D2E/DX2                !
 ! D30   D(11,4,8,5)          -179.6869         estimate D2E/DX2                !
 ! D31   D(11,4,8,10)            0.1825         estimate D2E/DX2                !
 ! D32   D(3,5,8,4)             -0.1254         estimate D2E/DX2                !
 ! D33   D(3,5,8,10)          -179.9954         estimate D2E/DX2                !
 ! D34   D(29,5,8,4)          -179.6745         estimate D2E/DX2                !
 ! D35   D(29,5,8,10)            0.4555         estimate D2E/DX2                !
 ! D36   D(3,5,29,30)          -60.5052         estimate D2E/DX2                !
 ! D37   D(3,5,29,31)          179.9372         estimate D2E/DX2                !
 ! D38   D(3,5,29,32)           60.3852         estimate D2E/DX2                !
 ! D39   D(8,5,29,30)          119.029          estimate D2E/DX2                !
 ! D40   D(8,5,29,31)           -0.5287         estimate D2E/DX2                !
 ! D41   D(8,5,29,32)         -120.0806         estimate D2E/DX2                !
 ! D42   D(3,6,7,4)             -0.6669         estimate D2E/DX2                !
 ! D43   D(3,6,7,9)            179.669          estimate D2E/DX2                !
 ! D44   D(25,6,7,4)           177.8555         estimate D2E/DX2                !
 ! D45   D(25,6,7,9)            -1.8086         estimate D2E/DX2                !
 ! D46   D(3,6,25,26)          -44.5657         estimate D2E/DX2                !
 ! D47   D(3,6,25,27)         -165.9316         estimate D2E/DX2                !
 ! D48   D(3,6,25,28)           74.7497         estimate D2E/DX2                !
 ! D49   D(7,6,25,26)          136.9679         estimate D2E/DX2                !
 ! D50   D(7,6,25,27)           15.602          estimate D2E/DX2                !
 ! D51   D(7,6,25,28)         -103.7166         estimate D2E/DX2                !
 ! D52   D(1,12,14,17)        -178.3242         estimate D2E/DX2                !
 ! D53   D(1,12,14,18)           3.0103         estimate D2E/DX2                !
 ! D54   D(15,12,14,17)         -0.3233         estimate D2E/DX2                !
 ! D55   D(15,12,14,18)       -178.9888         estimate D2E/DX2                !
 ! D56   D(1,12,15,16)         178.4993         estimate D2E/DX2                !
 ! D57   D(1,12,15,19)          -2.3915         estimate D2E/DX2                !
 ! D58   D(14,12,15,16)          0.5323         estimate D2E/DX2                !
 ! D59   D(14,12,15,19)        179.6416         estimate D2E/DX2                !
 ! D60   D(17,13,16,15)          0.0204         estimate D2E/DX2                !
 ! D61   D(17,13,16,20)       -179.8978         estimate D2E/DX2                !
 ! D62   D(22,13,16,15)        179.8508         estimate D2E/DX2                !
 ! D63   D(22,13,16,20)         -0.0675         estimate D2E/DX2                !
 ! D64   D(16,13,17,14)          0.1894         estimate D2E/DX2                !
 ! D65   D(16,13,17,21)        179.7482         estimate D2E/DX2                !
 ! D66   D(22,13,17,14)       -179.6411         estimate D2E/DX2                !
 ! D67   D(22,13,17,21)         -0.0823         estimate D2E/DX2                !
 ! D68   D(12,14,17,13)         -0.0369         estimate D2E/DX2                !
 ! D69   D(12,14,17,21)       -179.5974         estimate D2E/DX2                !
 ! D70   D(18,14,17,13)        178.6271         estimate D2E/DX2                !
 ! D71   D(18,14,17,21)         -0.9334         estimate D2E/DX2                !
 ! D72   D(12,15,16,13)         -0.3849         estimate D2E/DX2                !
 ! D73   D(12,15,16,20)        179.5337         estimate D2E/DX2                !
 ! D74   D(19,15,16,13)       -179.4826         estimate D2E/DX2                !
 ! D75   D(19,15,16,20)          0.436          estimate D2E/DX2                !
 --------------------------------------------------------------------------------
 Trust Radius=3.00D-01 FncErr=1.00D-07 GrdErr=1.00D-06
 Number of steps in this run=    173 maximum allowed number of steps=    192.
 GradGradGradGradGradGradGradGradGradGradGradGradGradGradGradGradGradGrad

 Leave Link  103 at Wed Oct 19 23:42:54 2016, MaxMem=   536870912 cpu:         0.1
 (Enter /shared/gaussian/g09.d01/intel64-sandybridge/g09/l202.exe)
                          Input orientation:                          
 ---------------------------------------------------------------------
 Center     Atomic      Atomic             Coordinates (Angstroms)
 Number     Number       Type             X           Y           Z
 ---------------------------------------------------------------------
      1          6           0        0.125581   -0.725970    0.960739
      2          1           0        0.033636   -1.816318    0.948246
      3          6           0       -1.112012   -0.130093    0.302745
      4          6           0       -3.412915    0.943995   -0.859668
      5          6           0       -2.132614   -0.981667   -0.153650
      6          6           0       -1.241528    1.265236    0.164271
      7          6           0       -2.400749    1.779521   -0.412179
      8          6           0       -3.274696   -0.428179   -0.732992
      9          1           0       -2.505092    2.854747   -0.514960
     10          1           0       -4.063128   -1.084845   -1.085535
     11          1           0       -4.307463    1.362709   -1.307102
     12          6           0        1.416959   -0.408319    0.229948
     13          6           0        3.793303    0.101018   -1.150223
     14          6           0        1.460028   -0.496255   -1.161005
     15          6           0        2.574158   -0.070568    0.924478
     16          6           0        3.754936    0.186474    0.235874
     17          6           0        2.640268   -0.243764   -1.847596
     18          1           0        0.557864   -0.743051   -1.712012
     19          1           0        2.540159    0.003630    2.003847
     20          1           0        4.648711    0.456233    0.787618
     21          1           0        2.657785   -0.309421   -2.929805
     22          1           0        4.714189    0.304165   -1.684987
     23          8           0        0.252801   -0.315575    2.319968
     24          1           0       -0.597071   -0.442864    2.743656
     25          6           0       -0.156736    2.225556    0.586071
     26          1           0        0.258331    1.968052    1.560254
     27          1           0       -0.547947    3.243853    0.626708
     28          1           0        0.669372    2.209243   -0.130899
     29          6           0       -2.037740   -2.487636   -0.050670
     30          1           0       -1.181495   -2.882334   -0.604964
     31          1           0       -2.936016   -2.950421   -0.462070
     32          1           0       -1.941699   -2.824849    0.985406
 ---------------------------------------------------------------------
                    Distance matrix (angstroms):
                    1          2          3          4          5
     1  C    0.000000
     2  H    1.094289   0.000000
     3  C    1.523044   2.138349   0.000000
     4  C    4.315509   4.771435   2.792673   0.000000
     5  C    2.531144   2.569719   1.405384   2.417810   0.000000
     6  C    2.543275   3.425877   1.408152   2.422100   2.437967
     7  C    3.813756   4.550499   2.412174   1.386661   2.786197
     8  C    3.810418   3.962140   2.416363   1.384923   1.395112
     9  H    4.681844   5.514069   3.393904   2.143348   3.871351
    10  H    4.675608   4.631932   3.398229   2.142425   2.146145
    11  H    5.399774   5.834205   3.876980   1.084313   3.399488
    12  C    1.517437   2.100475   2.545271   5.132611   3.615984
    13  C    4.311874   4.713263   5.121196   7.261171   6.105887
    14  C    2.517005   2.868118   2.981950   5.090255   3.762641
    15  C    2.535034   3.082606   3.738709   6.329104   4.913875
    16  C    3.811850   4.285642   4.877691   7.290551   6.014942
    17  C    3.800384   4.133302   4.326256   6.247223   5.118042
    18  H    2.707537   2.916109   2.687648   4.397693   3.118349
    19  H    2.729575   3.272486   4.031127   6.672563   5.240268
    20  H    4.678277   5.146767   5.810749   8.242650   6.995707
    21  H    4.660676   4.918961   4.969196   6.535283   5.577354
    22  H    5.395958   5.773902   6.171246   8.193922   7.132816
    23  O    1.425522   2.044966   2.442602   5.013390   3.500381
    24  H    1.944523   2.346841   2.514167   4.778734   3.323038
    25  C    2.988576   4.062531   2.557715   3.786194   3.838953
    26  H    2.763113   3.840117   2.803815   4.514727   4.165925
    27  H    4.040385   5.103622   3.436078   3.963168   4.579863
    28  H    3.178499   4.215905   2.972183   4.335553   4.246593
    29  C    2.967553   2.395642   2.557320   3.784399   1.512464
    30  H    2.968127   2.241739   2.898895   4.436767   2.172751
    31  H    4.043012   3.477645   3.444733   3.943602   2.148620
    32  H    2.946107   2.218212   2.901054   4.446680   2.175136
                    6          7          8          9         10
     6  C    0.000000
     7  C    1.393046   0.000000
     8  C    2.794013   2.395964   0.000000
     9  H    2.141143   1.085155   3.378969   0.000000
    10  H    3.878959   3.379572   1.084952   4.274742   0.000000
    11  H    3.402117   2.147132   2.145574   2.470265   2.469679
    12  C    3.142078   4.446781   4.789496   5.156062   5.676226
    13  C    5.332244   6.459749   7.100052   6.903359   7.945688
    14  C    3.486777   4.543731   4.754518   5.231517   5.554942
    15  C    4.113605   5.473498   6.089679   6.035580   7.008743
    16  C    5.112094   6.391418   7.122656   6.846268   8.030224
    17  C    4.625260   5.618359   6.021889   6.152351   6.798799
    18  H    3.285037   4.099552   3.968141   4.874298   4.675774
    19  H    4.390541   5.779580   6.441218   6.318846   7.371055
    20  H    5.978124   7.272241   8.116330   7.656793   9.043216
    21  H    5.220871   6.024192   6.327276   6.519105   7.012367
    22  H    6.309832   7.376927   8.078670   7.745479   8.906738
    23  O    3.062517   4.346882   4.666528   5.068899   5.551258
    24  H    3.160088   4.260463   4.388277   5.013318   5.204651
    25  C    1.508941   2.496206   4.301617   2.668881   5.386364
    26  H    2.166171   3.316134   4.845945   3.567807   5.915690
    27  H    2.147051   2.580006   4.771558   2.298962   5.833172
    28  H    2.151700   3.112784   4.782696   3.262116   5.844562
    29  C    3.842421   4.297801   2.497396   5.382847   2.672258
    30  H    4.218728   4.822514   3.228120   5.888472   3.430120
    31  H    4.586432   4.760394   2.559259   5.821380   2.267039
    32  H    4.230047   4.833652   3.236325   5.901383   3.437568
                   11         12         13         14         15
    11  H    0.000000
    12  C    6.186119   0.000000
    13  C    8.199932   2.794872   0.000000
    14  C    6.061439   1.394395   2.408531   0.000000
    15  C    7.375021   1.391243   2.412497   2.402443   0.000000
    16  C    8.292562   2.412457   1.389259   2.772002   1.390857
    17  C    7.151493   2.416558   1.390933   1.388570   2.778266
    18  H    5.316915   2.149721   3.390594   1.085549   3.386555
    19  H    7.726539   2.139626   3.395293   3.381251   1.082450
    20  H    9.242435   3.391558   2.147819   3.856432   2.144766
    21  H    7.344649   3.396096   2.150529   2.144337   3.862582
    22  H    9.091398   3.878961   1.084100   3.391872   3.395507
    23  O    6.063685   2.394170   4.975031   3.688796   2.719581
    24  H    5.782365   3.221217   5.893512   4.413715   3.674875
    25  C    4.642967   3.088792   4.809489   3.615862   3.583921
    26  H    5.425371   2.959607   4.829962   3.862918   3.150117
    27  H    4.627341   4.166129   5.646357   4.606114   4.563068
    28  H    5.183528   2.746039   3.904175   3.000996   3.152708
    29  C    4.642782   4.041937   6.473887   4.175263   5.297427
    30  H    5.318370   3.683720   5.826346   3.602804   4.934587
    31  H    4.604133   5.088179   7.420820   5.082976   6.370093
    32  H    5.328046   4.206057   6.783204   4.647707   5.289872
                   16         17         18         19         20
    16  C    0.000000
    17  C    2.401757   0.000000
    18  H    3.857401   2.145711   0.000000
    19  H    2.152869   3.860679   4.277223   0.000000
    20  H    1.084447   3.386472   4.941808   2.475895   0.000000
    21  H    3.386912   1.084340   2.465912   4.944973   4.285936
    22  H    2.150285   2.151236   4.286307   4.292345   2.478142
    23  O    4.106148   4.803514   4.066038   2.331058   4.718878
    24  H    5.062114   5.621352   4.612696   3.254057   5.670334
    25  C    4.425118   4.454605   3.821579   3.770980   5.124787
    26  H    4.141769   4.709479   4.259991   3.043430   4.707228
    27  H    5.292931   5.333889   4.752666   4.683157   5.899320
    28  H    3.707671   3.584512   3.350879   3.594678   4.444306
    29  C    6.386554   5.490689   3.541298   5.602197   7.353755
    30  H    5.873069   4.807500   2.971104   5.383808   6.861240
    31  H    7.422673   6.351426   4.317642   6.692956   8.408038
    32  H    6.487027   5.973468   4.225845   5.396718   7.364654
                   21         22         23         24         25
    21  H    0.000000
    22  H    2.480898   0.000000
    23  O    5.774435   6.027249   0.000000
    24  H    6.542175   6.955603   0.958121   0.000000
    25  C    5.168077   5.707483   3.103460   3.459701   0.000000
    26  H    5.577176   5.758019   2.406688   2.818629   1.089780
    27  H    5.962488   6.455678   4.022170   4.251560   1.091616
    28  H    4.258090   4.733398   3.543302   4.111036   1.093968
    29  C    5.923005   7.486901   3.947702   3.750317   5.114469
    30  H    5.173474   6.788175   4.147371   4.183996   5.344084
    31  H    6.659970   8.403183   4.985048   4.694165   5.967724
    32  H    6.543050   7.824485   3.590730   3.251664   5.371420
                   26         27         28         29         30
    26  H    0.000000
    27  H    1.774616   0.000000
    28  H    1.757022   1.768121   0.000000
    29  C    5.264995   5.960561   5.421768   0.000000
    30  H    5.503409   6.280809   5.438254   1.093702   0.000000
    31  H    6.203630   6.727358   6.303224   1.091018   1.761647
    32  H    5.304949   6.237015   5.779785   1.093796   1.763659
                   31         32
    31  H    0.000000
    32  H    1.760574   0.000000
 Symmetry turned off by external request.
 Stoichiometry    C15H16O
 Framework group  C1[X(C15H16O)]
 Deg. of freedom    90
 Full point group                 C1      NOp   1
 Rotational constants (GHZ):      0.9532903      0.3644588      0.3517828
 Leave Link  202 at Wed Oct 19 23:42:54 2016, MaxMem=   536870912 cpu:         0.0
 (Enter /shared/gaussian/g09.d01/intel64-sandybridge/g09/l301.exe)
 Standard basis: 3-21G (6D, 7F)
 Ernie: Thresh=  0.10000D-02 Tol=  0.10000D-05 Strict=F.
   176 basis functions,   288 primitive gaussians,   176 cartesian basis functions
    57 alpha electrons       57 beta electrons
       nuclear repulsion energy      1061.7414961194 Hartrees.
 IExCor=  402 DFT=T Ex+Corr=B3LYP ExCW=0 ScaHFX=  0.200000
 ScaDFX=  0.800000  0.720000  1.000000  0.810000 ScalE2=  1.000000  1.000000
 IRadAn=      0 IRanWt=     -1 IRanGd=            0 ICorTp=0 IEmpDi=  4
 NAtoms=   32 NActive=   32 NUniq=   32 SFac= 1.00D+00 NAtFMM=   60 NAOKFM=F Big=F
 Integral buffers will be    131072 words long.
 Raffenetti 2 integral format.
 Two-electron integral symmetry is turned off.
 Leave Link  301 at Wed Oct 19 23:42:54 2016, MaxMem=   536870912 cpu:         0.3
 (Enter /shared/gaussian/g09.d01/intel64-sandybridge/g09/l302.exe)
 NPDir=0 NMtPBC=     1 NCelOv=     1 NCel=       1 NClECP=     1 NCelD=      1
         NCelK=      1 NCelE2=     1 NClLst=     1 CellRange=     0.0.
 One-electron integrals computed using PRISM.
 NBasis=   176 RedAO= T EigKep=  1.24D-03  NBF=   176
 NBsUse=   176 1.00D-06 EigRej= -1.00D+00 NBFU=   176
 Precomputing XC quadrature grid using
 IXCGrd= 4 IRadAn=           0 IRanWt=          -1 IRanGd=           0 AccXCQ= 0.00D+00.
 Generated NRdTot=       0 NPtTot=           0 NUsed=           0 NTot=          32
 NSgBfM=   175   175   175   175   175 MxSgAt=    32 MxSgA2=    32.
 Leave Link  302 at Wed Oct 19 23:42:54 2016, MaxMem=   536870912 cpu:         2.1
 (Enter /shared/gaussian/g09.d01/intel64-sandybridge/g09/l303.exe)
 DipDrv:  MaxL=1.
 Leave Link  303 at Wed Oct 19 23:42:54 2016, MaxMem=   536870912 cpu:         0.2
 (Enter /shared/gaussian/g09.d01/intel64-sandybridge/g09/l401.exe)
 ExpMin= 1.83D-01 ExpMax= 3.22D+02 ExpMxC= 3.22D+02 IAcc=1 IRadAn=         1 AccDes= 0.00D+00
 Harris functional with IExCor=  402 and IRadAn=       1 diagonalized for initial guess.
 HarFok:  IExCor=  402 AccDes= 0.00D+00 IRadAn=         1 IDoV= 1 UseB2=F ITyADJ=14
 ICtDFT=  3500011 ScaDFX=  1.000000  1.000000  1.000000  1.000000
 FoFCou: FMM=F IPFlag=           0 FMFlag=      100000 FMFlg1=           0
         NFxFlg=           0 DoJE=T BraDBF=F KetDBF=T FulRan=T
         wScrn=  0.000000 ICntrl=     500 IOpCl=  0 I1Cent=   200000004 NGrid=           0
         NMat0=    1 NMatS0=      1 NMatT0=    0 NMatD0=    1 NMtDS0=    0 NMtDT0=    0
 Symmetry not used in FoFCou.
 Harris En= -652.812025726175    
 JPrj=0 DoOrth=F DoCkMO=F.
 Leave Link  401 at Wed Oct 19 23:42:55 2016, MaxMem=   536870912 cpu:         3.3
 (Enter /shared/gaussian/g09.d01/intel64-sandybridge/g09/l502.exe)
 Closed shell SCF:
 Using DIIS extrapolation, IDIIS=  1040.
 Two-electron integral symmetry not used.
 Keep R1 ints in memory in canonical form, NReq=124200210.
 IVT=      114006 IEndB=      114006 NGot=   536870912 MDV=   415443231
 LenX=   415443231 LenY=   415411814
 Requested convergence on RMS density matrix=1.00D-08 within 128 cycles.
 Requested convergence on MAX density matrix=1.00D-06.
 Requested convergence on             energy=1.00D-06.
 No special actions if energy rises.
 FoFCou: FMM=F IPFlag=           0 FMFlag=           0 FMFlg1=           0
         NFxFlg=           0 DoJE=F BraDBF=F KetDBF=F FulRan=T
         wScrn=  0.000000 ICntrl=     600 IOpCl=  0 I1Cent=           0 NGrid=           0
         NMat0=    1 NMatS0=  15576 NMatT0=    0 NMatD0=    1 NMtDS0=    0 NMtDT0=    0
 Symmetry not used in FoFCou.
 Integral accuracy reduced to 1.0D-05 until final iterations.

 Cycle   1  Pass 0  IDiag  1:
 E= -652.555564885121    
 DIIS: error= 4.04D-02 at cycle   1 NSaved=   1.
 NSaved= 1 IEnMin= 1 EnMin= -652.555564885121     IErMin= 1 ErrMin= 4.04D-02
 ErrMax= 4.04D-02  0.00D+00 EMaxC= 1.00D-01 BMatC= 2.90D-01 BMatP= 2.90D-01
 IDIUse=3 WtCom= 5.96D-01 WtEn= 4.04D-01
 Coeff-Com:  0.100D+01
 Coeff-En:   0.100D+01
 Coeff:      0.100D+01
 Gap=     0.241 Goal=   None    Shift=    0.000
 GapD=    0.241 DampG=1.000 DampE=0.500 DampFc=0.5000 IDamp=-1.
 Damping current iteration by 5.00D-01
 RMSDP=6.65D-03 MaxDP=1.33D-01              OVMax= 1.23D-01

 Cycle   2  Pass 0  IDiag  1:
 E= -652.702422794865     Delta-E=       -0.146857909744 Rises=F Damp=T
 DIIS: error= 5.47D-03 at cycle   2 NSaved=   2.
 NSaved= 2 IEnMin= 2 EnMin= -652.702422794865     IErMin= 2 ErrMin= 5.47D-03
 ErrMax= 5.47D-03  0.00D+00 EMaxC= 1.00D-01 BMatC= 1.23D-02 BMatP= 2.90D-01
 IDIUse=3 WtCom= 9.45D-01 WtEn= 5.47D-02
 Coeff-Com: -0.150D-01 0.101D+01
 Coeff-En:   0.000D+00 0.100D+01
 Coeff:     -0.142D-01 0.101D+01
 Gap=     0.237 Goal=   None    Shift=    0.000
 RMSDP=1.39D-03 MaxDP=4.06D-02 DE=-1.47D-01 OVMax= 7.37D-02

 Cycle   3  Pass 0  IDiag  1:
 E= -652.845352953305     Delta-E=       -0.142930158440 Rises=F Damp=F
 DIIS: error= 8.89D-03 at cycle   3 NSaved=   3.
 NSaved= 3 IEnMin= 3 EnMin= -652.845352953305     IErMin= 2 ErrMin= 5.47D-03
 ErrMax= 8.89D-03  0.00D+00 EMaxC= 1.00D-01 BMatC= 7.76D-03 BMatP= 1.23D-02
 IDIUse=3 WtCom= 9.11D-01 WtEn= 8.89D-02
 Coeff-Com: -0.412D-01 0.451D+00 0.590D+00
 Coeff-En:   0.000D+00 0.000D+00 0.100D+01
 Coeff:     -0.375D-01 0.411D+00 0.627D+00
 Gap=     0.231 Goal=   None    Shift=    0.000
 RMSDP=1.04D-03 MaxDP=3.12D-02 DE=-1.43D-01 OVMax= 3.62D-02

 Cycle   4  Pass 0  IDiag  1:
 E= -652.848989567430     Delta-E=       -0.003636614124 Rises=F Damp=F
 DIIS: error= 5.04D-03 at cycle   4 NSaved=   4.
 NSaved= 4 IEnMin= 4 EnMin= -652.848989567430     IErMin= 4 ErrMin= 5.04D-03
 ErrMax= 5.04D-03  0.00D+00 EMaxC= 1.00D-01 BMatC= 3.30D-03 BMatP= 7.76D-03
 IDIUse=3 WtCom= 9.50D-01 WtEn= 5.04D-02
 Coeff-Com: -0.171D-01 0.973D-01 0.407D+00 0.513D+00
 Coeff-En:   0.000D+00 0.000D+00 0.357D+00 0.643D+00
 Coeff:     -0.162D-01 0.923D-01 0.404D+00 0.519D+00
 Gap=     0.230 Goal=   None    Shift=    0.000
 RMSDP=5.18D-04 MaxDP=1.63D-02 DE=-3.64D-03 OVMax= 2.08D-02

 Cycle   5  Pass 0  IDiag  1:
 E= -652.852331948795     Delta-E=       -0.003342381365 Rises=F Damp=F
 DIIS: error= 1.19D-03 at cycle   5 NSaved=   5.
 NSaved= 5 IEnMin= 5 EnMin= -652.852331948795     IErMin= 5 ErrMin= 1.19D-03
 ErrMax= 1.19D-03  0.00D+00 EMaxC= 1.00D-01 BMatC= 1.49D-04 BMatP= 3.30D-03
 IDIUse=3 WtCom= 9.88D-01 WtEn= 1.19D-02
 Coeff-Com: -0.665D-02 0.311D-01 0.202D+00 0.302D+00 0.472D+00
 Coeff-En:   0.000D+00 0.000D+00 0.000D+00 0.000D+00 0.100D+01
 Coeff:     -0.657D-02 0.308D-01 0.200D+00 0.298D+00 0.478D+00
 Gap=     0.230 Goal=   None    Shift=    0.000
 RMSDP=1.03D-04 MaxDP=2.12D-03 DE=-3.34D-03 OVMax= 4.42D-03

 Cycle   6  Pass 0  IDiag  1:
 E= -652.852490133807     Delta-E=       -0.000158185012 Rises=F Damp=F
 DIIS: error= 3.14D-04 at cycle   6 NSaved=   6.
 NSaved= 6 IEnMin= 6 EnMin= -652.852490133807     IErMin= 6 ErrMin= 3.14D-04
 ErrMax= 3.14D-04  0.00D+00 EMaxC= 1.00D-01 BMatC= 9.26D-06 BMatP= 1.49D-04
 IDIUse=3 WtCom= 9.97D-01 WtEn= 3.14D-03
 Coeff-Com: -0.491D-03 0.113D-02 0.410D-01 0.750D-01 0.239D+00 0.644D+00
 Coeff-En:   0.000D+00 0.000D+00 0.000D+00 0.000D+00 0.000D+00 0.100D+01
 Coeff:     -0.489D-03 0.113D-02 0.409D-01 0.748D-01 0.239D+00 0.645D+00
 Gap=     0.230 Goal=   None    Shift=    0.000
 RMSDP=2.45D-05 MaxDP=5.71D-04 DE=-1.58D-04 OVMax= 1.10D-03

 Cycle   7  Pass 0  IDiag  1:
 E= -652.852498648541     Delta-E=       -0.000008514734 Rises=F Damp=F
 DIIS: error= 7.11D-05 at cycle   7 NSaved=   7.
 NSaved= 7 IEnMin= 7 EnMin= -652.852498648541     IErMin= 7 ErrMin= 7.11D-05
 ErrMax= 7.11D-05  0.00D+00 EMaxC= 1.00D-01 BMatC= 8.11D-07 BMatP= 9.26D-06
 IDIUse=1 WtCom= 1.00D+00 WtEn= 0.00D+00
 Coeff-Com:  0.537D-04-0.737D-03 0.138D-01 0.284D-01 0.116D+00 0.367D+00
 Coeff-Com:  0.475D+00
 Coeff:      0.537D-04-0.737D-03 0.138D-01 0.284D-01 0.116D+00 0.367D+00
 Coeff:      0.475D+00
 Gap=     0.230 Goal=   None    Shift=    0.000
 RMSDP=7.98D-06 MaxDP=1.74D-04 DE=-8.51D-06 OVMax= 2.96D-04

 Initial convergence to 1.0D-05 achieved.  Increase integral accuracy.
 Cycle   8  Pass 1  IDiag  1:
 E= -652.852373387355     Delta-E=        0.000125261186 Rises=F Damp=F
 DIIS: error= 2.13D-05 at cycle   1 NSaved=   1.
 NSaved= 1 IEnMin= 1 EnMin= -652.852373387355     IErMin= 1 ErrMin= 2.13D-05
 ErrMax= 2.13D-05  0.00D+00 EMaxC= 1.00D-01 BMatC= 1.36D-07 BMatP= 1.36D-07
 IDIUse=1 WtCom= 1.00D+00 WtEn= 0.00D+00
 Coeff-Com:  0.100D+01
 Coeff:      0.100D+01
 Gap=     0.230 Goal=   None    Shift=    0.000
 RMSDP=7.98D-06 MaxDP=1.74D-04 DE= 1.25D-04 OVMax= 2.23D-04

 Cycle   9  Pass 1  IDiag  1:
 E= -652.852373384643     Delta-E=        0.000000002712 Rises=F Damp=F
 DIIS: error= 4.16D-05 at cycle   2 NSaved=   2.
 NSaved= 2 IEnMin= 1 EnMin= -652.852373387355     IErMin= 1 ErrMin= 2.13D-05
 ErrMax= 4.16D-05  0.00D+00 EMaxC= 1.00D-01 BMatC= 1.73D-07 BMatP= 1.36D-07
 IDIUse=1 WtCom= 1.00D+00 WtEn= 0.00D+00
 Coeff-Com:  0.538D+00 0.462D+00
 Coeff:      0.538D+00 0.462D+00
 Gap=     0.230 Goal=   None    Shift=    0.000
 RMSDP=4.25D-06 MaxDP=1.06D-04 DE= 2.71D-09 OVMax= 1.79D-04

 Cycle  10  Pass 1  IDiag  1:
 E= -652.852373559084     Delta-E=       -0.000000174441 Rises=F Damp=F
 DIIS: error= 1.48D-05 at cycle   3 NSaved=   3.
 NSaved= 3 IEnMin= 3 EnMin= -652.852373559084     IErMin= 3 ErrMin= 1.48D-05
 ErrMax= 1.48D-05  0.00D+00 EMaxC= 1.00D-01 BMatC= 2.36D-08 BMatP= 1.36D-07
 IDIUse=1 WtCom= 1.00D+00 WtEn= 0.00D+00
 Coeff-Com:  0.102D-02 0.266D+00 0.733D+00
 Coeff:      0.102D-02 0.266D+00 0.733D+00
 Gap=     0.230 Goal=   None    Shift=    0.000
 RMSDP=1.22D-06 MaxDP=2.16D-05 DE=-1.74D-07 OVMax= 5.20D-05

 Cycle  11  Pass 1  IDiag  1:
 E= -652.852373585030     Delta-E=       -0.000000025946 Rises=F Damp=F
 DIIS: error= 3.76D-06 at cycle   4 NSaved=   4.
 NSaved= 4 IEnMin= 4 EnMin= -652.852373585030     IErMin= 4 ErrMin= 3.76D-06
 ErrMax= 3.76D-06  0.00D+00 EMaxC= 1.00D-01 BMatC= 1.41D-09 BMatP= 2.36D-08
 IDIUse=1 WtCom= 1.00D+00 WtEn= 0.00D+00
 Coeff-Com: -0.151D-01 0.139D+00 0.412D+00 0.464D+00
 Coeff:     -0.151D-01 0.139D+00 0.412D+00 0.464D+00
 Gap=     0.230 Goal=   None    Shift=    0.000
 RMSDP=3.10D-07 MaxDP=7.03D-06 DE=-2.59D-08 OVMax= 1.53D-05

 Cycle  12  Pass 1  IDiag  1:
 E= -652.852373586365     Delta-E=       -0.000000001336 Rises=F Damp=F
 DIIS: error= 1.26D-06 at cycle   5 NSaved=   5.
 NSaved= 5 IEnMin= 5 EnMin= -652.852373586365     IErMin= 5 ErrMin= 1.26D-06
 ErrMax= 1.26D-06  0.00D+00 EMaxC= 1.00D-01 BMatC= 8.83D-11 BMatP= 1.41D-09
 IDIUse=1 WtCom= 1.00D+00 WtEn= 0.00D+00
 Coeff-Com: -0.759D-02 0.527D-01 0.155D+00 0.256D+00 0.545D+00
 Coeff:     -0.759D-02 0.527D-01 0.155D+00 0.256D+00 0.545D+00
 Gap=     0.230 Goal=   None    Shift=    0.000
 RMSDP=9.90D-08 MaxDP=3.17D-06 DE=-1.34D-09 OVMax= 4.79D-06

 Cycle  13  Pass 1  IDiag  1:
 E= -652.852373586469     Delta-E=       -0.000000000104 Rises=F Damp=F
 DIIS: error= 2.49D-07 at cycle   6 NSaved=   6.
 NSaved= 6 IEnMin= 6 EnMin= -652.852373586469     IErMin= 6 ErrMin= 2.49D-07
 ErrMax= 2.49D-07  0.00D+00 EMaxC= 1.00D-01 BMatC= 1.11D-11 BMatP= 8.83D-11
 IDIUse=1 WtCom= 1.00D+00 WtEn= 0.00D+00
 Coeff-Com: -0.294D-02 0.166D-01 0.476D-01 0.103D+00 0.318D+00 0.518D+00
 Coeff:     -0.294D-02 0.166D-01 0.476D-01 0.103D+00 0.318D+00 0.518D+00
 Gap=     0.230 Goal=   None    Shift=    0.000
 RMSDP=2.59D-08 MaxDP=6.59D-07 DE=-1.04D-10 OVMax= 1.03D-06

 Cycle  14  Pass 1  IDiag  1:
 E= -652.852373586463     Delta-E=        0.000000000006 Rises=F Damp=F
 DIIS: error= 8.11D-08 at cycle   7 NSaved=   7.
 NSaved= 7 IEnMin= 6 EnMin= -652.852373586469     IErMin= 7 ErrMin= 8.11D-08
 ErrMax= 8.11D-08  0.00D+00 EMaxC= 1.00D-01 BMatC= 5.35D-13 BMatP= 1.11D-11
 IDIUse=1 WtCom= 1.00D+00 WtEn= 0.00D+00
 Coeff-Com: -0.675D-03 0.272D-02 0.750D-02 0.230D-01 0.957D-01 0.236D+00
 Coeff-Com:  0.636D+00
 Coeff:     -0.675D-03 0.272D-02 0.750D-02 0.230D-01 0.957D-01 0.236D+00
 Coeff:      0.636D+00
 Gap=     0.230 Goal=   None    Shift=    0.000
 RMSDP=7.03D-09 MaxDP=2.01D-07 DE= 5.91D-12 OVMax= 2.06D-07

 SCF Done:  E(RB3LYP) =  -652.852373586     A.U. after   14 cycles
            NFock= 14  Conv=0.70D-08     -V/T= 2.0080
 KE= 6.476435047127D+02 PE=-3.638324281391D+03 EE= 1.276086906973D+03
 Leave Link  502 at Wed Oct 19 23:43:07 2016, MaxMem=   536870912 cpu:        71.4
 (Enter /shared/gaussian/g09.d01/intel64-sandybridge/g09/l601.exe)
 Copying SCF densities to generalized density rwf, IOpCl= 0 IROHF=0.

 **********************************************************************

            Population analysis using the SCF density.

 **********************************************************************

 Alpha  occ. eigenvalues --  -19.03166 -10.17839 -10.13859 -10.13410 -10.12962
 Alpha  occ. eigenvalues --  -10.12871 -10.12421 -10.12292 -10.12099 -10.12086
 Alpha  occ. eigenvalues --  -10.11952 -10.11877 -10.11863 -10.11807 -10.11396
 Alpha  occ. eigenvalues --  -10.10003  -1.03074  -0.86954  -0.85612  -0.78698
 Alpha  occ. eigenvalues --   -0.78328  -0.75125  -0.74169  -0.70606  -0.68096
 Alpha  occ. eigenvalues --   -0.66635  -0.60878  -0.59610  -0.58021  -0.57177
 Alpha  occ. eigenvalues --   -0.52253  -0.51064  -0.50489  -0.47555  -0.44944
 Alpha  occ. eigenvalues --   -0.44350  -0.44118  -0.43351  -0.42142  -0.41913
 Alpha  occ. eigenvalues --   -0.41642  -0.40838  -0.40630  -0.40287  -0.37065
 Alpha  occ. eigenvalues --   -0.36272  -0.35365  -0.34842  -0.34382  -0.34156
 Alpha  occ. eigenvalues --   -0.33703  -0.31229  -0.26824  -0.24580  -0.24147
 Alpha  occ. eigenvalues --   -0.23795  -0.23480
 Alpha virt. eigenvalues --   -0.00480   0.00789   0.00988   0.01540   0.10184
 Alpha virt. eigenvalues --    0.11477   0.12148   0.13126   0.15319   0.15820
 Alpha virt. eigenvalues --    0.16624   0.16753   0.17432   0.18778   0.19527
 Alpha virt. eigenvalues --    0.19881   0.20561   0.21327   0.21792   0.22484
 Alpha virt. eigenvalues --    0.23218   0.23304   0.25168   0.26911   0.27728
 Alpha virt. eigenvalues --    0.28703   0.29380   0.33769   0.34074   0.36850
 Alpha virt. eigenvalues --    0.37027   0.37530   0.39577   0.40096   0.42556
 Alpha virt. eigenvalues --    0.55670   0.58575   0.59060   0.59600   0.64754
 Alpha virt. eigenvalues --    0.68127   0.68685   0.69378   0.70531   0.70783
 Alpha virt. eigenvalues --    0.71664   0.71965   0.72858   0.73495   0.75037
 Alpha virt. eigenvalues --    0.75964   0.76020   0.77617   0.78537   0.80027
 Alpha virt. eigenvalues --    0.80850   0.81312   0.81862   0.83178   0.84198
 Alpha virt. eigenvalues --    0.85079   0.85997   0.86772   0.88059   0.89812
 Alpha virt. eigenvalues --    0.91439   0.92227   0.92628   0.94543   0.95952
 Alpha virt. eigenvalues --    0.98710   0.99062   0.99617   1.01210   1.02233
 Alpha virt. eigenvalues --    1.02623   1.04886   1.07089   1.07528   1.08085
 Alpha virt. eigenvalues --    1.11801   1.12038   1.12394   1.13876   1.15182
 Alpha virt. eigenvalues --    1.16926   1.19253   1.23144   1.24430   1.30492
 Alpha virt. eigenvalues --    1.30795   1.35490   1.36124   1.41382   1.42357
 Alpha virt. eigenvalues --    1.45669   1.46418   1.50883   1.52674   1.54405
 Alpha virt. eigenvalues --    1.55236   1.56283   1.57586   1.60210   1.66640
 Alpha virt. eigenvalues --    1.68835   1.72037   1.78178   1.85756   1.88752
 Alpha virt. eigenvalues --    1.93266   1.97923   1.99689   2.00774   2.10001
 Alpha virt. eigenvalues --    2.25840   2.49548   2.50453   3.21573
          Condensed to atoms (all electrons):
               1          2          3          4          5          6
     1  C    5.306381   0.368767   0.216257  -0.000090  -0.061038  -0.063263
     2  H    0.368767   0.591843  -0.066907  -0.000018  -0.009061   0.005032
     3  C    0.216257  -0.066907   5.455909  -0.022638   0.432804   0.435858
     4  C   -0.000090  -0.000018  -0.022638   5.138477  -0.087584  -0.082500
     5  C   -0.061038  -0.009061   0.432804  -0.087584   5.199195  -0.079848
     6  C   -0.063263   0.005032   0.435858  -0.082500  -0.079848   5.180818
     7  C    0.003838  -0.000049  -0.079927   0.455137  -0.023086   0.468466
     8  C    0.003263   0.000299  -0.075415   0.462546   0.475668  -0.023057
     9  H   -0.000056   0.000001   0.004637  -0.040518  -0.000116  -0.043143
    10  H   -0.000056   0.000002   0.004316  -0.039808  -0.042638  -0.000156
    11  H    0.000002  -0.000000  -0.000190   0.388028   0.004236   0.004173
    12  C    0.234417  -0.071832  -0.086446   0.000001   0.003398  -0.007875
    13  C   -0.000241   0.000006  -0.000006   0.000000   0.000000  -0.000003
    14  C   -0.073380   0.001128  -0.006952   0.000008   0.000066   0.000584
    15  C   -0.059042  -0.000125   0.004850   0.000000  -0.000122   0.000323
    16  C    0.005100   0.000004  -0.000029   0.000000   0.000000  -0.000004
    17  C    0.004154  -0.000011   0.000176  -0.000000   0.000023   0.000000
    18  H   -0.007466   0.000615   0.002060  -0.000013   0.001785   0.000307
    19  H   -0.006631   0.000423   0.000442   0.000000  -0.000005  -0.000016
    20  H   -0.000059   0.000001   0.000000  -0.000000  -0.000000   0.000000
    21  H   -0.000062   0.000002   0.000002  -0.000000  -0.000000   0.000001
    22  H    0.000002  -0.000000   0.000000  -0.000000   0.000000   0.000000
    23  O    0.261912  -0.040160  -0.057565  -0.000002   0.001743  -0.001338
    24  H   -0.051507  -0.001720  -0.000189  -0.000013   0.001594   0.000005
    25  C   -0.010908  -0.000095  -0.058092   0.004252   0.003100   0.305675
    26  H    0.000234   0.000448  -0.008937  -0.000102  -0.000027  -0.036555
    27  H    0.000065   0.000003   0.003836   0.000227  -0.000089  -0.043169
    28  H    0.000194   0.000014  -0.002613  -0.000098  -0.000016  -0.045285
    29  C   -0.011674   0.003544  -0.063659   0.004480   0.302467   0.003120
    30  H   -0.001184   0.000606  -0.001901  -0.000105  -0.043730   0.000040
    31  H    0.000370   0.000252   0.003707   0.000217  -0.041079  -0.000064
    32  H    0.000187   0.000880  -0.002764  -0.000104  -0.043304   0.000002
               7          8          9         10         11         12
     1  C    0.003838   0.003263  -0.000056  -0.000056   0.000002   0.234417
     2  H   -0.000049   0.000299   0.000001   0.000002  -0.000000  -0.071832
     3  C   -0.079927  -0.075415   0.004637   0.004316  -0.000190  -0.086446
     4  C    0.455137   0.462546  -0.040518  -0.039808   0.388028   0.000001
     5  C   -0.023086   0.475668  -0.000116  -0.042638   0.004236   0.003398
     6  C    0.468466  -0.023057  -0.043143  -0.000156   0.004173  -0.007875
     7  C    5.165457  -0.090197   0.389236   0.004152  -0.040231   0.000012
     8  C   -0.090197   5.145828   0.004139   0.388853  -0.040539  -0.000077
     9  H    0.389236   0.004139   0.511318  -0.000058  -0.004017   0.000002
    10  H    0.004152   0.388853  -0.000058   0.514028  -0.004037   0.000001
    11  H   -0.040231  -0.040539  -0.004017  -0.004037   0.509331   0.000000
    12  C    0.000012  -0.000077   0.000002   0.000001   0.000000   5.356243
    13  C    0.000000  -0.000000  -0.000000  -0.000000   0.000000  -0.024998
    14  C   -0.000050  -0.000029   0.000001  -0.000000  -0.000000   0.436832
    15  C    0.000001   0.000001  -0.000000  -0.000000   0.000000   0.441673
    16  C   -0.000000  -0.000000   0.000000   0.000000  -0.000000  -0.084223
    17  C   -0.000001  -0.000000  -0.000000   0.000000   0.000000  -0.076791
    18  H   -0.000043   0.000105  -0.000000  -0.000002   0.000000  -0.044379
    19  H   -0.000000   0.000000  -0.000000  -0.000000   0.000000  -0.045613
    20  H    0.000000   0.000000  -0.000000  -0.000000   0.000000   0.004249
    21  H   -0.000000  -0.000000   0.000000  -0.000000   0.000000   0.004085
    22  H    0.000000  -0.000000   0.000000   0.000000   0.000000  -0.000207
    23  O    0.000071  -0.000005   0.000001   0.000000  -0.000000  -0.053498
    24  H   -0.000028  -0.000032   0.000001   0.000000  -0.000000   0.009481
    25  C   -0.068531   0.000099  -0.005504   0.000002  -0.000066  -0.003845
    26  H    0.002903   0.000012   0.000091  -0.000000   0.000001  -0.004876
    27  H   -0.004168   0.000004   0.005050  -0.000000  -0.000003   0.000143
    28  H    0.000203   0.000016   0.000175  -0.000000   0.000001   0.000840
    29  C    0.000078  -0.067067   0.000002  -0.005811  -0.000069   0.000109
    30  H    0.000013   0.001191  -0.000000   0.000092   0.000001   0.000139
    31  H    0.000002  -0.002734  -0.000000   0.005235  -0.000005  -0.000012
    32  H    0.000010   0.001388  -0.000000   0.000087   0.000001   0.000023
              13         14         15         16         17         18
     1  C   -0.000241  -0.073380  -0.059042   0.005100   0.004154  -0.007466
     2  H    0.000006   0.001128  -0.000125   0.000004  -0.000011   0.000615
     3  C   -0.000006  -0.006952   0.004850  -0.000029   0.000176   0.002060
     4  C    0.000000   0.000008   0.000000   0.000000  -0.000000  -0.000013
     5  C    0.000000   0.000066  -0.000122   0.000000   0.000023   0.001785
     6  C   -0.000003   0.000584   0.000323  -0.000004   0.000000   0.000307
     7  C    0.000000  -0.000050   0.000001  -0.000000  -0.000001  -0.000043
     8  C   -0.000000  -0.000029   0.000001  -0.000000  -0.000000   0.000105
     9  H   -0.000000   0.000001  -0.000000   0.000000  -0.000000  -0.000000
    10  H   -0.000000  -0.000000  -0.000000   0.000000   0.000000  -0.000002
    11  H    0.000000  -0.000000   0.000000  -0.000000   0.000000   0.000000
    12  C   -0.024998   0.436832   0.441673  -0.084223  -0.076791  -0.044379
    13  C    5.150695  -0.084444  -0.081207   0.455662   0.457210   0.003872
    14  C   -0.084444   5.198985  -0.076810  -0.026013   0.458325   0.390332
    15  C   -0.081207  -0.076810   5.204316   0.422983  -0.025114   0.003789
    16  C    0.455662  -0.026013   0.422983   5.176148  -0.085361  -0.000186
    17  C    0.457210   0.458325  -0.025114  -0.085361   5.136152  -0.037152
    18  H    0.003872   0.390332   0.003789  -0.000186  -0.037152   0.496649
    19  H    0.003566   0.003838   0.384033  -0.034073  -0.000153  -0.000054
    20  H   -0.042099  -0.000115  -0.041709   0.390591   0.004044   0.000003
    21  H   -0.041199  -0.041412  -0.000121   0.003997   0.390366  -0.003787
    22  H    0.391014   0.004165   0.004022  -0.040839  -0.040876  -0.000051
    23  O   -0.000003   0.001659   0.004140   0.000401  -0.000010   0.000037
    24  H    0.000000  -0.000130  -0.000428  -0.000014   0.000001   0.000001
    25  C    0.000011  -0.001238  -0.000604  -0.000009  -0.000146  -0.000022
    26  H   -0.000007   0.000226   0.001282   0.000033   0.000001   0.000003
    27  H   -0.000001   0.000046   0.000046  -0.000000  -0.000001   0.000001
    28  H    0.000158   0.001313  -0.000229   0.000061   0.000482   0.000019
    29  C   -0.000000  -0.000205   0.000002   0.000000   0.000002   0.000095
    30  H    0.000000   0.000681   0.000001  -0.000000  -0.000003   0.000533
    31  H    0.000000   0.000001   0.000000   0.000000  -0.000000  -0.000006
    32  H    0.000000  -0.000007   0.000001  -0.000000  -0.000000   0.000011
              19         20         21         22         23         24
     1  C   -0.006631  -0.000059  -0.000062   0.000002   0.261912  -0.051507
     2  H    0.000423   0.000001   0.000002  -0.000000  -0.040160  -0.001720
     3  C    0.000442   0.000000   0.000002   0.000000  -0.057565  -0.000189
     4  C    0.000000  -0.000000  -0.000000  -0.000000  -0.000002  -0.000013
     5  C   -0.000005  -0.000000  -0.000000   0.000000   0.001743   0.001594
     6  C   -0.000016   0.000000   0.000001   0.000000  -0.001338   0.000005
     7  C   -0.000000   0.000000  -0.000000   0.000000   0.000071  -0.000028
     8  C    0.000000   0.000000  -0.000000  -0.000000  -0.000005  -0.000032
     9  H   -0.000000  -0.000000   0.000000   0.000000   0.000001   0.000001
    10  H   -0.000000  -0.000000  -0.000000   0.000000   0.000000   0.000000
    11  H    0.000000   0.000000   0.000000   0.000000  -0.000000  -0.000000
    12  C   -0.045613   0.004249   0.004085  -0.000207  -0.053498   0.009481
    13  C    0.003566  -0.042099  -0.041199   0.391014  -0.000003   0.000000
    14  C    0.003838  -0.000115  -0.041412   0.004165   0.001659  -0.000130
    15  C    0.384033  -0.041709  -0.000121   0.004022   0.004140  -0.000428
    16  C   -0.034073   0.390591   0.003997  -0.040839   0.000401  -0.000014
    17  C   -0.000153   0.004044   0.390366  -0.040876  -0.000010   0.000001
    18  H   -0.000054   0.000003  -0.003787  -0.000051   0.000037   0.000001
    19  H    0.476685  -0.003574   0.000002  -0.000046   0.015157  -0.000345
    20  H   -0.003574   0.510129  -0.000055  -0.003926   0.000001  -0.000000
    21  H    0.000002  -0.000055   0.509312  -0.003884   0.000000  -0.000000
    22  H   -0.000046  -0.003926  -0.003884   0.509067  -0.000000   0.000000
    23  O    0.015157   0.000001   0.000000  -0.000000   8.154014   0.255697
    24  H   -0.000345  -0.000000  -0.000000   0.000000   0.255697   0.433164
    25  C   -0.000065  -0.000001  -0.000000   0.000000  -0.008632   0.000607
    26  H    0.000581   0.000002   0.000000  -0.000000   0.024760  -0.001067
    27  H    0.000001   0.000000   0.000000  -0.000000   0.000073  -0.000013
    28  H    0.000007  -0.000002  -0.000003  -0.000001   0.000030   0.000014
    29  C    0.000000  -0.000000   0.000000   0.000000  -0.000112   0.000016
    30  H   -0.000000  -0.000000  -0.000000  -0.000000  -0.000010   0.000006
    31  H    0.000000   0.000000   0.000000  -0.000000  -0.000001  -0.000003
    32  H   -0.000000   0.000000   0.000000  -0.000000   0.000157   0.000051
              25         26         27         28         29         30
     1  C   -0.010908   0.000234   0.000065   0.000194  -0.011674  -0.001184
     2  H   -0.000095   0.000448   0.000003   0.000014   0.003544   0.000606
     3  C   -0.058092  -0.008937   0.003836  -0.002613  -0.063659  -0.001901
     4  C    0.004252  -0.000102   0.000227  -0.000098   0.004480  -0.000105
     5  C    0.003100  -0.000027  -0.000089  -0.000016   0.302467  -0.043730
     6  C    0.305675  -0.036555  -0.043169  -0.045285   0.003120   0.000040
     7  C   -0.068531   0.002903  -0.004168   0.000203   0.000078   0.000013
     8  C    0.000099   0.000012   0.000004   0.000016  -0.067067   0.001191
     9  H   -0.005504   0.000091   0.005050   0.000175   0.000002  -0.000000
    10  H    0.000002  -0.000000  -0.000000  -0.000000  -0.005811   0.000092
    11  H   -0.000066   0.000001  -0.000003   0.000001  -0.000069   0.000001
    12  C   -0.003845  -0.004876   0.000143   0.000840   0.000109   0.000139
    13  C    0.000011  -0.000007  -0.000001   0.000158  -0.000000   0.000000
    14  C   -0.001238   0.000226   0.000046   0.001313  -0.000205   0.000681
    15  C   -0.000604   0.001282   0.000046  -0.000229   0.000002   0.000001
    16  C   -0.000009   0.000033  -0.000000   0.000061   0.000000  -0.000000
    17  C   -0.000146   0.000001  -0.000001   0.000482   0.000002  -0.000003
    18  H   -0.000022   0.000003   0.000001   0.000019   0.000095   0.000533
    19  H   -0.000065   0.000581   0.000001   0.000007   0.000000  -0.000000
    20  H   -0.000001   0.000002   0.000000  -0.000002  -0.000000  -0.000000
    21  H   -0.000000   0.000000   0.000000  -0.000003   0.000000  -0.000000
    22  H    0.000000  -0.000000  -0.000000  -0.000001   0.000000  -0.000000
    23  O   -0.008632   0.024760   0.000073   0.000030  -0.000112  -0.000010
    24  H    0.000607  -0.001067  -0.000013   0.000014   0.000016   0.000006
    25  C    5.400556   0.337055   0.357642   0.361385  -0.000050   0.000000
    26  H    0.337055   0.508398  -0.021637  -0.024590   0.000001   0.000000
    27  H    0.357642  -0.021637   0.542982  -0.025023   0.000000  -0.000000
    28  H    0.361385  -0.024590  -0.025023   0.502236   0.000001  -0.000000
    29  C   -0.000050   0.000001   0.000000   0.000001   5.349130   0.364627
    30  H    0.000000   0.000000  -0.000000  -0.000000   0.364627   0.523310
    31  H    0.000000   0.000000  -0.000000  -0.000000   0.364925  -0.025481
    32  H    0.000001  -0.000001  -0.000000   0.000000   0.363247  -0.030924
              31         32
     1  C    0.000370   0.000187
     2  H    0.000252   0.000880
     3  C    0.003707  -0.002764
     4  C    0.000217  -0.000104
     5  C   -0.041079  -0.043304
     6  C   -0.000064   0.000002
     7  C    0.000002   0.000010
     8  C   -0.002734   0.001388
     9  H   -0.000000  -0.000000
    10  H    0.005235   0.000087
    11  H   -0.000005   0.000001
    12  C   -0.000012   0.000023
    13  C    0.000000   0.000000
    14  C    0.000001  -0.000007
    15  C    0.000000   0.000001
    16  C    0.000000  -0.000000
    17  C   -0.000000  -0.000000
    18  H   -0.000006   0.000011
    19  H    0.000000  -0.000000
    20  H    0.000000   0.000000
    21  H    0.000000   0.000000
    22  H   -0.000000  -0.000000
    23  O   -0.000001   0.000157
    24  H   -0.000003   0.000051
    25  C    0.000000   0.000001
    26  H    0.000000  -0.000001
    27  H   -0.000000  -0.000000
    28  H   -0.000000   0.000000
    29  C    0.364925   0.363247
    30  H   -0.025481  -0.030924
    31  H    0.520024  -0.026006
    32  H   -0.026006   0.535759
 Mulliken charges:
               1
     1  C   -0.058486
     2  H    0.216106
     3  C   -0.030623
     4  C   -0.179779
     5  C    0.005664
     6  C    0.021870
     7  C   -0.183270
     8  C   -0.184262
     9  H    0.178759
    10  H    0.175799
    11  H    0.183384
    12  C    0.013021
    13  C   -0.187988
    14  C   -0.187406
    15  C   -0.185953
    16  C   -0.184228
    17  C   -0.185317
    18  H    0.192945
    19  H    0.205838
    20  H    0.182522
    21  H    0.182755
    22  H    0.181560
    23  O   -0.558516
    24  H    0.354850
    25  C   -0.612573
    26  H    0.221767
    27  H    0.183985
    28  H    0.230713
    29  C   -0.607199
    30  H    0.212100
    31  H    0.200656
    32  H    0.201306
 Sum of Mulliken charges =  -0.00000
 Mulliken charges with hydrogens summed into heavy atoms:
               1
     1  C    0.157620
     3  C   -0.030623
     4  C    0.003604
     5  C    0.005664
     6  C    0.021870
     7  C   -0.004511
     8  C   -0.008463
    12  C    0.013021
    13  C   -0.006427
    14  C    0.005539
    15  C    0.019885
    16  C   -0.001707
    17  C   -0.002562
    23  O   -0.203665
    25  C    0.023892
    29  C    0.006864
 Electronic spatial extent (au):  <R**2>=           3567.0609
 Charge=             -0.0000 electrons
 Dipole moment (field-independent basis, Debye):
    X=             -1.4032    Y=             -0.6708    Z=             -0.1572  Tot=              1.5632
 Quadrupole moment (field-independent basis, Debye-Ang):
   XX=            -89.0247   YY=            -91.9308   ZZ=            -92.3736
   XY=              3.4355   XZ=             -1.2664   YZ=             -0.8282
 Traceless Quadrupole moment (field-independent basis, Debye-Ang):
   XX=              2.0850   YY=             -0.8211   ZZ=             -1.2639
   XY=              3.4355   XZ=             -1.2664   YZ=             -0.8282
 Octapole moment (field-independent basis, Debye-Ang**2):
  XXX=              9.4644  YYY=              1.8823  ZZZ=             15.5108  XYY=            -20.9767
  XXY=              8.1665  XXZ=            -10.7022  XZZ=              2.1906  YZZ=             -5.7644
  YYZ=              5.3822  XYZ=              4.1460
 Hexadecapole moment (field-independent basis, Debye-Ang**3):
 XXXX=          -3009.5741 YYYY=           -909.6597 ZZZZ=           -656.7533 XXXY=             54.0717
 XXXZ=             62.4000 YYYX=             -1.1170 YYYZ=             -8.4519 ZZZX=            -51.6615
 ZZZY=             -6.2587 XXYY=           -698.5073 XXZZ=           -620.3826 YYZZ=           -280.8437
 XXYZ=             -9.6079 YYXZ=             15.8322 ZZXY=             10.8654
 N-N= 1.061741496119D+03 E-N=-3.638324278312D+03  KE= 6.476435047127D+02
 No NMR shielding tensors so no spin-rotation constants.
 Leave Link  601 at Wed Oct 19 23:43:07 2016, MaxMem=   536870912 cpu:         1.0
 (Enter /shared/gaussian/g09.d01/intel64-sandybridge/g09/l701.exe)
 Compute integral first derivatives.
 ... and contract with generalized density number  0.
 Leave Link  701 at Wed Oct 19 23:43:07 2016, MaxMem=   536870912 cpu:         1.1
 (Enter /shared/gaussian/g09.d01/intel64-sandybridge/g09/l702.exe)
 L702 exits ... SP integral derivatives will be done elsewhere.
 Leave Link  702 at Wed Oct 19 23:43:07 2016, MaxMem=   536870912 cpu:         0.1
 (Enter /shared/gaussian/g09.d01/intel64-sandybridge/g09/l703.exe)
 Compute integral first derivatives, UseDBF=F ICtDFT=           0.
 Integral derivatives from FoFJK, PRISM(SPDF).
 Calling FoFJK, ICntrl=      2127 FMM=F ISym2X=0 I1Cent= 0 IOpClX= 0 NMat=1 NMatS=1 NMatT=0.
 FoFJK:  IHMeth= 1 ICntrl=    2127 DoSepK=F KAlg= 0 I1Cent=   0 FoldK=F
 IRaf=         0 NMat=   1 IRICut=       1 DoRegI=T DoRafI=F ISym2E= 0.
 FoFCou: FMM=F IPFlag=           0 FMFlag=      100000 FMFlg1=         800
         NFxFlg=           0 DoJE=F BraDBF=F KetDBF=F FulRan=T
         wScrn=  0.000000 ICntrl=    2127 IOpCl=  0 I1Cent=           0 NGrid=           0
         NMat0=    1 NMatS0=      1 NMatT0=    0 NMatD0=    1 NMtDS0=    0 NMtDT0=    0
 Symmetry not used in FoFCou.
 Leave Link  703 at Wed Oct 19 23:43:10 2016, MaxMem=   536870912 cpu:        21.0
 (Enter /shared/gaussian/g09.d01/intel64-sandybridge/g09/l716.exe)
 Dipole        =-5.52072956D-01-2.63907171D-01-6.18597659D-02
 -------------------------------------------------------------------
 Center     Atomic                   Forces (Hartrees/Bohr)
 Number     Number              X              Y              Z
 -------------------------------------------------------------------
      1        6          -0.001996091   -0.010415388   -0.014137930
      2        1          -0.001820512   -0.003441906   -0.003532298
      3        6           0.005178667   -0.002049741   -0.003309149
      4        6          -0.004991009    0.002562403   -0.002296437
      5        6          -0.001255594    0.000711403   -0.000230851
      6        6          -0.000706724   -0.000140906    0.001574981
      7        6          -0.001642286    0.006994668   -0.001177580
      8        6          -0.005543163   -0.003919985   -0.002264790
      9        1           0.000333874   -0.000139403    0.000160173
     10        1           0.000307460   -0.000270664    0.000136344
     11        1           0.000055542   -0.000029256   -0.000016558
     12        6          -0.002907666    0.001774487   -0.001193332
     13        6           0.005695313    0.001186287   -0.003185745
     14        6          -0.005028939   -0.001898901   -0.004201885
     15        6          -0.000113608    0.000608369    0.007829745
     16        6           0.004918783    0.001052486    0.003749533
     17        6           0.000300196   -0.000629543   -0.006432506
     18        1           0.000272023    0.000248274    0.000916532
     19        1          -0.001552530   -0.000415571   -0.000526394
     20        1           0.000018202    0.000030196   -0.000008389
     21        1           0.000084538    0.000003873    0.000008277
     22        1           0.000008766   -0.000019061   -0.000033989
     23        8           0.034453623    0.017248331    0.009442469
     24        1          -0.028123078   -0.003213157    0.015520788
     25        6           0.004806054    0.003704006    0.002698057
     26        1          -0.000879989   -0.004138593    0.001232779
     27        1          -0.001203863    0.001899296   -0.000027582
     28        1           0.000918051   -0.000556160   -0.001177854
     29        6           0.000890445   -0.005693918    0.000584358
     30        1           0.001545156   -0.000327708   -0.001301694
     31        1          -0.001993902   -0.000376263   -0.000958540
     32        1          -0.000027738   -0.000347956    0.002159465
 -------------------------------------------------------------------
 Cartesian Forces:  Max     0.034453623 RMS     0.006049514
 Leave Link  716 at Wed Oct 19 23:43:10 2016, MaxMem=   536870912 cpu:         0.1
 (Enter /shared/gaussian/g09.d01/intel64-sandybridge/g09/l103.exe)

 GradGradGradGradGradGradGradGradGradGradGradGradGradGradGradGradGradGrad
 Berny optimization.
 FormGI is forming the generalized inverse of G from B-inverse, IUseBI=4.
 GSVD:  received Info=                   1 from GESDD.
 Internal  Forces:  Max     0.032235422 RMS     0.004214769
 Search for a local minimum.
 Step number   1 out of a maximum of  173
 All quantities printed in internal units (Hartrees-Bohrs-Radians)
 RMS Force = .42148D-02 SwitMx=.10000D-02 MixMth= 1
 Mixed Optimization -- RFO/linear search
 Second derivative matrix not updated -- first step.
 ITU=  0
     Eigenvalues ---    0.00461   0.00535   0.00601   0.00648   0.01354
     Eigenvalues ---    0.01384   0.01482   0.01520   0.01523   0.02026
     Eigenvalues ---    0.02141   0.02184   0.02203   0.02207   0.02214
     Eigenvalues ---    0.02214   0.02217   0.02221   0.02223   0.02225
     Eigenvalues ---    0.02228   0.02249   0.02277   0.05318   0.06236
     Eigenvalues ---    0.06935   0.07087   0.07173   0.07287   0.08423
     Eigenvalues ---    0.15996   0.15998   0.16000   0.16000   0.16000
     Eigenvalues ---    0.16000   0.16000   0.16000   0.16000   0.16000
     Eigenvalues ---    0.16000   0.16000   0.16000   0.16000   0.16000
     Eigenvalues ---    0.19029   0.20431   0.22000   0.22000   0.22084
     Eigenvalues ---    0.23450   0.23475   0.24907   0.24984   0.24990
     Eigenvalues ---    0.24998   0.24999   0.30075   0.30615   0.31104
     Eigenvalues ---    0.31457   0.34322   0.34358   0.34378   0.34388
     Eigenvalues ---    0.34627   0.34695   0.34838   0.35332   0.35379
     Eigenvalues ---    0.35403   0.35462   0.35475   0.35478   0.35503
     Eigenvalues ---    0.35700   0.41640   0.41664   0.42192   0.42676
     Eigenvalues ---    0.42834   0.45104   0.46622   0.46834   0.46844
     Eigenvalues ---    0.47130   0.47280   0.47465   0.47861   0.55879
 RFO step:  Lambda=-9.60109791D-03 EMin= 4.61124225D-03
 Linear search not attempted -- first point.
 Iteration  1 RMS(Cart)=  0.13257842 RMS(Int)=  0.00352433
 Iteration  2 RMS(Cart)=  0.00718443 RMS(Int)=  0.00016862
 Iteration  3 RMS(Cart)=  0.00002326 RMS(Int)=  0.00016787
 Iteration  4 RMS(Cart)=  0.00000001 RMS(Int)=  0.00016787
 ITry= 1 IFail=0 DXMaxC= 6.01D-01 DCOld= 1.00D+10 DXMaxT= 3.00D-01 DXLimC= 3.00D+00 Rises=F
 Variable       Old X    -DE/DX   Delta X   Delta X   Delta X     New X
                                 (Linear)    (Quad)   (Total)
    R1        2.06791   0.00362   0.00000   0.01027   0.01027   2.07818
    R2        2.87814   0.00440   0.00000   0.01419   0.01419   2.89232
    R3        2.86754   0.00334   0.00000   0.01058   0.01058   2.87812
    R4        2.69385   0.02841   0.00000   0.06668   0.06668   2.76053
    R5        2.65579   0.00738   0.00000   0.01600   0.01602   2.67181
    R6        2.66102   0.00292   0.00000   0.00615   0.00621   2.66723
    R7        2.62041   0.00664   0.00000   0.01373   0.01370   2.63411
    R8        2.61713   0.00734   0.00000   0.01521   0.01515   2.63228
    R9        2.04905  -0.00005   0.00000  -0.00014  -0.00014   2.04892
   R10        2.63638   0.00709   0.00000   0.01511   0.01507   2.65145
   R11        2.85814   0.00678   0.00000   0.02114   0.02114   2.87928
   R12        2.63248   0.00665   0.00000   0.01379   0.01382   2.64630
   R13        2.85149   0.00396   0.00000   0.01221   0.01221   2.86369
   R14        2.05065  -0.00019   0.00000  -0.00051  -0.00051   2.05014
   R15        2.05026  -0.00010   0.00000  -0.00029  -0.00029   2.04998
   R16        2.63503   0.00615   0.00000   0.01289   0.01290   2.64792
   R17        2.62907   0.00494   0.00000   0.01011   0.01012   2.63919
   R18        2.62532   0.00687   0.00000   0.01423   0.01422   2.63954
   R19        2.62848   0.00702   0.00000   0.01476   0.01476   2.64324
   R20        2.04865   0.00002   0.00000   0.00006   0.00006   2.04871
   R21        2.62402   0.00681   0.00000   0.01415   0.01415   2.63816
   R22        2.05139  -0.00075   0.00000  -0.00206  -0.00206   2.04933
   R23        2.62834   0.00578   0.00000   0.01189   0.01189   2.64023
   R24        2.04553  -0.00051   0.00000  -0.00138  -0.00138   2.04416
   R25        2.04931   0.00002   0.00000   0.00005   0.00005   2.04936
   R26        2.04911  -0.00001   0.00000  -0.00002  -0.00002   2.04909
   R27        1.81059   0.03224   0.00000   0.05671   0.05671   1.86730
   R28        2.05939   0.00175   0.00000   0.00488   0.00488   2.06427
   R29        2.06286   0.00220   0.00000   0.00619   0.00619   2.06904
   R30        2.06730   0.00147   0.00000   0.00417   0.00417   2.07147
   R31        2.06680   0.00199   0.00000   0.00563   0.00563   2.07243
   R32        2.06172   0.00216   0.00000   0.00607   0.00607   2.06779
   R33        2.06698   0.00215   0.00000   0.00608   0.00608   2.07305
    A1        1.89297  -0.00210   0.00000  -0.00688  -0.00713   1.88583
    A2        1.84896   0.00028   0.00000   0.00020   0.00053   1.84949
    A3        1.88099   0.00443   0.00000   0.05344   0.05350   1.93449
    A4        1.98402   0.00189   0.00000  -0.00519  -0.00553   1.97849
    A5        1.95176   0.00170   0.00000   0.00143   0.00082   1.95259
    A6        1.89968  -0.00600   0.00000  -0.03882  -0.03889   1.86079
    A7        2.08671   0.00611   0.00000   0.02377   0.02326   2.10997
    A8        2.10006  -0.00593   0.00000  -0.02263  -0.02306   2.07700
    A9        2.09635  -0.00019   0.00000  -0.00168  -0.00194   2.09441
   A10        2.08821   0.00005   0.00000   0.00127   0.00121   2.08941
   A11        2.09748  -0.00001   0.00000  -0.00058  -0.00058   2.09691
   A12        2.09749  -0.00003   0.00000  -0.00068  -0.00068   2.09681
   A13        2.08169  -0.00054   0.00000  -0.00200  -0.00196   2.07973
   A14        2.13610   0.00063   0.00000   0.00238   0.00235   2.13844
   A15        2.06537  -0.00009   0.00000  -0.00041  -0.00044   2.06493
   A16        2.07493   0.00214   0.00000   0.00783   0.00775   2.08268
   A17        2.13769  -0.00712   0.00000  -0.02684  -0.02713   2.11056
   A18        2.07026   0.00501   0.00000   0.01991   0.01961   2.08987
   A19        2.11589  -0.00142   0.00000  -0.00600  -0.00596   2.10994
   A20        2.09010   0.00107   0.00000   0.00517   0.00512   2.09522
   A21        2.07717   0.00035   0.00000   0.00089   0.00084   2.07801
   A22        2.10920  -0.00003   0.00000   0.00089   0.00084   2.11004
   A23        2.09143   0.00044   0.00000   0.00208   0.00210   2.09353
   A24        2.08255  -0.00041   0.00000  -0.00297  -0.00295   2.07960
   A25        2.08690   0.00473   0.00000   0.01819   0.01811   2.10501
   A26        2.11561  -0.00589   0.00000  -0.02275  -0.02281   2.09281
   A27        2.08014   0.00115   0.00000   0.00395   0.00392   2.08406
   A28        2.08585   0.00012   0.00000   0.00109   0.00108   2.08693
   A29        2.09912  -0.00003   0.00000  -0.00036  -0.00036   2.09876
   A30        2.09821  -0.00009   0.00000  -0.00072  -0.00072   2.09749
   A31        2.10369  -0.00087   0.00000  -0.00351  -0.00349   2.10020
   A32        2.08863  -0.00021   0.00000  -0.00206  -0.00207   2.08656
   A33        2.09064   0.00109   0.00000   0.00564   0.00563   2.09627
   A34        2.09884   0.00013   0.00000   0.00010   0.00011   2.09895
   A35        2.08095  -0.00172   0.00000  -0.00975  -0.00977   2.07118
   A36        2.10329   0.00159   0.00000   0.00975   0.00973   2.11302
   A37        2.10139  -0.00039   0.00000  -0.00174  -0.00174   2.09965
   A38        2.09458   0.00017   0.00000   0.00075   0.00075   2.09533
   A39        2.08721   0.00021   0.00000   0.00099   0.00099   2.08820
   A40        2.09643  -0.00014   0.00000   0.00013   0.00014   2.09657
   A41        2.09671  -0.00002   0.00000  -0.00056  -0.00057   2.09614
   A42        2.09002   0.00015   0.00000   0.00044   0.00044   2.09046
   A43        1.87993   0.00296   0.00000   0.01743   0.01743   1.89736
   A44        1.95338  -0.00565   0.00000  -0.03611  -0.03620   1.91717
   A45        1.92457   0.00083   0.00000   0.00788   0.00786   1.93243
   A46        1.92857   0.00007   0.00000   0.00020   0.00007   1.92864
   A47        1.90037   0.00261   0.00000   0.01570   0.01572   1.91609
   A48        1.86997   0.00174   0.00000   0.00449   0.00427   1.87424
   A49        1.88487   0.00066   0.00000   0.00943   0.00937   1.89424
   A50        1.95404  -0.00038   0.00000  -0.00195  -0.00196   1.95209
   A51        1.92307  -0.00077   0.00000  -0.00525  -0.00526   1.91781
   A52        1.95732  -0.00018   0.00000  -0.00064  -0.00064   1.95668
   A53        1.87590   0.00045   0.00000   0.00181   0.00180   1.87770
[...]
 0001606,-0.00326437,-0.00175590,-0.00195349,0.00035114,0.00006107,0.00
 014571,-0.00011339,-0.00098758,0.00049928,0.00865189,-0.02548665,-0.00
 601946,0.00084352,-0.00172145,0.00035330,0.00016063,-0.00017718,-0.000
 06608,-0.00007687,0.00040210,-0.00004502,-0.00002648,0.00003039,0.0000
 2739,0.00002515,0.00005851,0.00003192,-0.00020127,0.00022793,0.0002091
 6,-0.00000071,-0.00002287,0.00005600,-0.00008345,0.00017292,-0.0002794
 5,0.00011707,0.00020653,0.00011334,0.00011638,0.00004646,-0.00000847,-
 0.00001185,-0.00001267,-0.00004777,-0.00000572,-0.00001543,0.00002814,
 0.00003159,-0.00005300,0.00003336,-0.00002451,0.00000224,-0.00000979,-
 0.00000566,0.00000098,0.00002313,-0.00001907,0.00000458,0.00001494,0.0
 0001174,0.00102052,-0.00032790,0.00005666,0.00003702,0.00004428,-0.099
 74973,0.10473450,0.02132812,-0.00712951,0.01154643,0.00590880,0.111601
 12,-0.00013063,0.00078386,0.00008719,0.00007677,-0.00008896,0.00000068
 ,-0.00318941,-0.00063406,-0.00242610,-0.00064876,-0.00015191,0.0003507
 3,0.00066261,-0.00076451,0.00073873,0.00886370,-0.02290694,-0.00343865
 ,0.00220314,0.00086539,0.00203026,-0.00005535,0.00040777,-0.00009220,-
 0.00044668,0.00096961,-0.00095416,-0.00001255,0.00005046,-0.00011671,-
 0.00002696,-0.00000204,-0.00005662,-0.00010587,-0.00010997,0.00009436,
 0.00001908,0.00000529,-0.00002397,0.00001317,0.00003910,0.00001269,0.0
 0002102,0.00003274,-0.00004680,-0.00000784,-0.00000766,0.00000452,0.00
 002796,0.00000679,0.00000539,-0.00000445,0.00001059,0.00003230,-0.0000
 4399,0.00000555,-0.00001327,0.00002289,-0.00000096,0.00000087,0.000007
 17,-0.00000387,-0.00001601,0.00001461,0.00000016,-0.00000831,0.0003126
 5,-0.00104061,0.00055183,-0.00002469,-0.00008009,-0.00015893,0.1005599
 1,-0.24763634,-0.04444196,0.00374847,-0.00935651,-0.00362996,-0.109743
 89,0.27521776,-0.00014988,-0.00066321,-0.00108178,-0.00001155,0.000038
 12,0.00009550,-0.00172596,-0.00108410,-0.00010545,0.00017089,0.0000731
 9,-0.00008403,0.00026425,-0.00007108,0.00068202,0.00581700,-0.00876595
 ,-0.00367705,0.00023244,-0.00096105,0.00043781,-0.00021915,0.00002155,
 -0.00015628,-0.00062181,0.00036372,-0.00004572,-0.00002463,0.00004747,
 0.00003011,0.00002180,0.00002748,-0.00000531,0.00024891,-0.00008726,-0
 .00006199,0.00003132,0.00002095,0.00010099,0.00006191,-0.00011368,0.00
 001923,-0.00014363,0.00000792,-0.00005697,0.00008416,0.00003058,-0.000
 08056,-0.00013058,-0.00003489,0.00007641,-0.00000425,0.00005058,0.0000
 3835,0.00007502,-0.00003107,0.00003858,0.00000350,-0.00000299,0.000001
 87,-0.00000263,-0.00000090,-0.00000102,0.00000796,-0.00000257,0.000005
 61,-0.00022048,0.00219187,-0.00078272,0.00004218,0.00007811,0.00010255
 ,0.01940732,-0.04369025,-0.05983974,-0.01132421,0.02479676,0.00994094,
 -0.02264366,0.05071327,0.05974626,-0.00017466,-0.00012039,0.00038886,0
 .00002458,-0.00001977,0.00002486,-0.00009744,0.00185018,-0.00030569,0.
 00042850,-0.00000281,-0.00129513,-0.00033337,-0.00026794,-0.00111891,-
 0.02079362,-0.00749179,0.01351716,0.00046764,-0.00150720,-0.00067802,0
 .00015270,-0.00026025,0.00025243,-0.00057216,0.00015301,0.00071522,-0.
 00007407,-0.00002459,0.00012353,-0.00013578,-0.00004712,-0.00000483,-0
 .00027950,0.00049293,0.00021302,-0.00007542,-0.00004037,-0.00004205,-0
 .00006384,0.00027091,-0.00007345,0.00014836,-0.00000182,0.00000635,-0.
 00011153,0.00000819,0.00004535,0.00012509,0.00004120,-0.00003248,-0.00
 002492,-0.00014326,-0.00002864,-0.00001019,-0.00000465,-0.00002364,-0.
 00000663,0.00001105,-0.00000571,0.00001438,-0.00002372,-0.00001979,-0.
 00000124,0.00000147,-0.00000447,-0.00015206,0.00045061,0.00018952,-0.0
 0005476,-0.00014306,-0.00001929,-0.16899162,-0.02300417,0.12838363,0.0
 1191818,0.00189765,-0.01092007,-0.01077453,-0.00181785,0.01081442,0.18
 945067,-0.00127112,0.00041786,0.00088307,0.00011717,-0.00003972,-0.000
 12581,-0.00052204,-0.00076227,-0.00105549,0.00012242,-0.00056952,-0.00
 067635,0.00061645,0.00009668,-0.00098243,-0.01816961,-0.00589836,0.015
 88803,0.00083344,-0.00044140,0.00033911,-0.00043401,0.00008444,-0.0000
 8582,-0.00008235,0.00013727,0.00009826,-0.00003110,-0.00001209,0.00004
 706,-0.00007545,-0.00002117,-0.00003651,-0.00006268,-0.00066350,0.0003
 7971,0.00000356,-0.00006300,-0.00010544,-0.00028367,0.00027728,-0.0003
 7002,0.00036440,0.00017054,0.00011587,0.00003179,-0.00003084,0.0000819
 7,0.00029101,0.00016430,-0.00017600,-0.00009241,-0.00022921,0.00001874
 ,-0.00007744,-0.00001938,0.00000703,-0.00002749,-0.00000340,-0.0000169
 5,-0.00000230,0.00000001,0.00002927,-0.00003754,0.00000099,0.00001345,
 0.00083222,-0.00064634,0.00002833,0.00002220,0.00025248,-0.00025644,-0
 .02454339,-0.05155162,0.02488462,-0.00917029,-0.00196116,0.00891375,0.
 02193495,0.00455929,-0.02293486,0.02976272,0.05682974,-0.00014751,-0.0
 0004796,-0.00037322,0.00001985,0.00003239,0.00003638,0.00048506,0.0001
 7687,0.00031719,0.00062293,0.00058311,-0.00047997,-0.00015194,0.000089
 23,-0.00070634,-0.01096568,-0.00199818,0.01028318,-0.00080405,-0.00081
 209,-0.00085408,0.00007915,-0.00054951,0.00005050,-0.00020630,0.000200
 83,0.00015245,-0.00002287,0.00000925,0.00007120,-0.00006980,0.00000114
 ,0.00005187,0.00048065,-0.00021758,-0.00006302,0.00003881,0.00003484,-
 0.00002005,-0.00004277,-0.00014753,0.00032029,-0.00017026,-0.00031237,
 -0.00022617,-0.00013989,-0.00013155,0.00004661,0.00003850,0.00013865,-
 0.00000667,-0.00010048,-0.00008871,-0.00001548,0.00003930,0.00010112,-
 0.00006938,-0.00000491,0.00001333,-0.00000582,0.00001231,-0.00001309,-
 0.00003390,0.00000476,-0.00000248,-0.00000824,-0.00056819,0.00154740,0
 .00021706,-0.00009576,-0.00048835,0.00011636,0.12655813,0.02356187,-0.
 17519971,0.02204015,0.00225970,-0.02067851,0.00312625,0.00092392,-0.00
 522893,-0.14007144,-0.02491771,0.19228481,-0.00187383,-0.00194690,0.00
 066645,-0.00092185,-0.00250525,-0.00078551,0.00599854,-0.02059570,0.00
 212217,-0.00149792,0.00025363,-0.00517873,-0.08519273,0.00612875,-0.00
 823847,-0.00231627,-0.00252043,-0.00477308,-0.00079107,0.00080203,0.00
 012261,-0.00232616,0.03038041,-0.00405979,-0.00014624,-0.00001268,0.00
 053099,-0.00084333,0.00162191,0.00217077,-0.00017099,0.00104260,-0.000
 11818,0.00012564,0.00015436,-0.00016474,-0.00002739,0.00000110,0.00003
 963,-0.00025080,0.00003716,0.00001163,-0.00011294,-0.00008446,0.000106
 03,0.00003352,0.00003094,-0.00001515,-0.00001776,0.00005802,0.00004895
 ,-0.00007758,-0.00028814,0.00013117,0.00002221,-0.00001999,0.00000565,
 -0.00000781,0.00000394,0.00000749,-0.00001675,-0.00001899,0.00002084,0
 .00000947,-0.00000849,0.00000485,0.00030136,-0.00043144,0.00034711,-0.
 00002652,0.00012225,-0.00001367,0.00046551,-0.00097690,0.00012596,0.00
 008310,0.00008093,0.00001535,-0.00027852,-0.00031075,-0.00007700,-0.00
 002722,-0.00006002,0.00001493,0.57507364,-0.00019028,0.00040015,-0.000
 12631,-0.00076199,-0.00090993,-0.00062534,-0.00123417,-0.02452117,-0.0
 0041110,0.00013429,0.00131903,-0.00016037,0.01443636,-0.17165453,0.006
 04763,-0.00216204,0.00285991,-0.00146166,0.00090197,-0.00056778,0.0004
 4631,0.00670518,-0.02049016,0.00247657,-0.00005682,-0.00002198,0.00006
 858,-0.00199122,0.00130839,-0.00083810,-0.00017745,-0.00005700,0.00000
 241,0.00033467,0.00013005,0.00015829,-0.00004921,0.00000359,-0.0000605
 3,-0.00006790,-0.00013759,-0.00001852,0.00011580,0.00004616,-0.0000392
 7,-0.00001513,0.00000018,0.00008730,0.00011888,0.00001801,0.00000249,-
 0.00007720,-0.00003548,0.00006638,-0.00002333,0.00000618,-0.00000299,0
 .00000543,-0.00001506,-0.00000875,0.00000027,0.00000510,0.00000087,-0.
 00000259,-0.00000377,0.00000383,0.00033065,-0.00072623,-0.00016655,-0.
 00008223,0.00008724,-0.00006424,0.00046388,-0.00027351,0.00010178,0.00
 002363,0.00009968,0.00003595,-0.00009839,-0.00007042,-0.00000484,0.000
 02562,0.00001482,0.00002593,0.01483005,0.45235345,0.00113362,-0.000669
 56,-0.00333763,-0.00159867,-0.00197278,0.00042503,0.00301094,-0.011821
 24,0.00380667,-0.00513699,-0.00030635,0.00509673,-0.00800057,-0.000080
 24,-0.07498022,-0.00516478,-0.00120752,0.00397003,0.00035733,0.0004765
 7,-0.00075280,-0.00442229,0.01599677,0.00389279,0.00050770,-0.00000585
 ,-0.00085101,0.00185392,0.00092388,-0.00355611,-0.00012280,0.00056128,
 -0.00000969,0.00080053,-0.00021250,0.00028774,0.00007483,0.00000200,0.
 00005818,0.00013920,0.00004806,0.00007586,-0.00003483,-0.00003887,-0.0
 0009171,0.00005500,0.00006835,-0.00009216,-0.00006722,-0.00001502,-0.0
 0001155,0.00006049,0.00012133,-0.00013941,-0.00000938,-0.00002477,-0.0
 0000279,0.00000667,-0.00000143,-0.00000563,-0.00000772,0.00001522,-0.0
 0000283,-0.00000383,-0.00001039,0.00000046,-0.00059711,-0.00000840,-0.
 00086880,-0.00011136,-0.00013260,0.00004913,0.00025487,-0.00053374,0.0
 0029589,0.00001586,0.00006203,-0.00000940,-0.00005000,-0.00013225,-0.0
 0010118,-0.00006820,-0.00002834,-0.00001517,0.01629397,0.00733186,0.55
 043415,-0.00026202,0.00045699,-0.00038843,-0.00040001,-0.00118202,-0.0
 0079482,0.00001314,-0.00168519,-0.00036636,-0.00002948,-0.00041805,-0.
 00044356,-0.00138341,0.00205106,-0.00115013,-0.00046832,0.00103131,-0.
 00003954,0.00068937,-0.00008582,0.00035618,-0.00024092,0.00123379,0.00
 005880,0.00000866,0.00003908,0.00006223,0.00011411,0.00003997,0.000557
 94,-0.00003695,0.00007066,0.00002464,0.00015922,-0.00001839,-0.0001781
 2,0.00007127,0.00000699,0.00009070,0.00018407,0.00004460,0.00009754,-0
 .00008717,0.00004696,-0.00004348,0.00004898,0.00000130,-0.00008754,-0.
 00015980,0.00002905,0.00004837,0.00017279,-0.00010548,0.00003153,-0.00
 000463,0.00000460,-0.00000336,0.00000479,-0.00000791,-0.00000063,0.000
 00985,0.00001436,-0.00001578,0.00000634,-0.00000301,-0.00000011,0.0000
 7182,-0.00023248,-0.00016485,-0.00002539,0.00003011,-0.00004203,0.0000
 1222,0.00002714,-0.00001631,-0.00000246,0.00003763,0.00000074,0.000010
 38,0.00000683,0.00000371,0.00002949,0.00001746,0.00000537,-0.23275062,
 0.05911318,0.10041227,0.25633245,0.00019201,-0.00053368,-0.00075491,-0
 .00059456,-0.00010993,-0.00089791,0.00033615,0.00105724,0.00097247,-0.
 00018897,-0.00048552,0.00144948,0.03091425,-0.01360142,-0.01504415,-0.
 00016827,-0.00005680,0.00124998,0.00016829,-0.00017762,-0.00013276,-0.
 00114965,-0.00317484,-0.00090211,0.00004219,-0.00002127,-0.00014139,0.
 00040595,0.00003050,-0.00042845,0.00005467,-0.00028202,0.00009163,0.00
 008788,-0.00012154,-0.00024225,0.00012522,-0.00002654,0.00010410,-0.00
 037429,0.00030040,-0.00041225,-0.00017083,-0.00001979,0.00005254,0.000
 11206,0.00001809,-0.00010865,-0.00009154,0.00011809,0.00025783,0.00020
 216,-0.00052223,0.00027494,0.00004967,0.00000439,0.00002660,0.00001578
 ,0.00000874,0.00001227,-0.00001658,0.00001120,-0.00001217,0.00004699,-
 0.00000400,0.00000971,-0.00028963,0.00041519,-0.00015087,0.00005062,-0
 .00007514,0.00011326,-0.00001486,0.00005717,-0.00003107,-0.00000558,-0
 .00006129,-0.00000500,0.00000479,0.00001424,-0.00000142,-0.00002638,-0
 .00004518,0.00001351,0.06018397,-0.06739997,-0.03414610,-0.06669799,0.
 07783146,0.00022862,-0.00112837,-0.00006405,-0.00040371,0.00005027,-0.
 00131730,0.00001526,-0.00088142,0.00028067,0.00009457,0.00013406,-0.00
 048925,-0.00382783,0.00144891,0.00125827,-0.00015405,0.00011903,-0.000
 03170,0.00008012,-0.00006405,0.00003440,-0.00023331,0.00079716,-0.0004
 5408,-0.00003803,0.00001718,0.00005250,-0.00009924,0.00005862,0.000376
 30,-0.00003771,0.00003990,0.00001975,-0.00046777,-0.00001979,0.0001958
 0,0.00001669,0.00001369,-0.00001577,0.00019578,0.00001742,0.00006781,0
 .00005439,0.00004274,-0.00007315,-0.00002929,-0.00001701,-0.00000281,-
 0.00004378,-0.00002524,-0.00004271,-0.00004859,0.00010016,-0.00004187,
 -0.00002946,-0.00001728,-0.00000974,0.00001168,-0.00000027,-0.00000375
 ,0.00002872,0.00000004,-0.00002691,-0.00000026,0.00000332,-0.00000965,
 0.00001286,0.00061757,0.00038049,0.00009828,-0.00003022,0.00001871,0.0
 0000930,-0.00000261,-0.00002118,-0.00000022,-0.00009157,0.00002059,-0.
 00000775,0.00001244,-0.00000686,0.00000328,-0.00001101,0.00000734,0.09
 988720,-0.03341742,-0.10112610,-0.11002376,0.03612875,0.10969008,0.000
 00181,0.00086408,0.00003918,-0.00021347,-0.00084557,0.00019069,0.00016
 563,0.00120022,-0.00048979,0.00019453,-0.00019868,0.00024364,0.0024157
 7,0.00339251,0.00280081,0.00011013,0.00030041,-0.00014199,0.00020159,0
 .00012284,0.00002106,0.00043045,0.00259334,0.00040504,0.00002642,-0.00
 001254,-0.00000846,0.00058647,0.00016914,-0.00004615,-0.00000718,-0.00
 004965,0.00003391,0.00021574,0.00001201,-0.00007208,-0.00002624,0.0000
 0673,0.00002786,0.00000403,-0.00006118,0.00009157,-0.00004975,-0.00002
 136,0.00004022,0.00000723,0.00000940,-0.00000437,-0.00001115,-0.000002
 54,-0.00005402,-0.00003880,0.00004527,-0.00013034,0.00002114,0.0000009
 5,0.00000004,-0.00001792,-0.00000494,-0.00000202,-0.00001488,-0.000006
 87,0.00002351,-0.00001818,-0.00000687,0.00000525,-0.00004735,-0.000396
 78,-0.00030636,-0.00004980,0.00004198,0.00003314,-0.00001363,0.0000513
 9,0.00009272,0.00000191,0.00008048,-0.00001678,0.00002521,-0.00001107,
 0.00001453,-0.00001537,-0.00000707,-0.00001240,-0.20610604,-0.09126268
 ,-0.09300049,-0.02276862,-0.01325552,-0.01466353,0.22562807,0.00082921
 ,-0.00054215,0.00041185,0.00007411,0.00030405,-0.00005878,0.00252129,-
 0.00514085,0.00118752,0.00011379,-0.00002574,0.00010079,-0.02760098,-0
 .01984220,-0.01642519,-0.00159419,-0.00025635,-0.00075632,0.00023277,0
 .00021465,0.00011404,-0.00256768,0.00087113,-0.00124409,0.00009409,0.0
 0002719,0.00004243,0.00146188,0.00008143,0.00071233,0.00002796,0.00002
 191,-0.00000064,-0.00012238,0.00006382,-0.00005346,-0.00000514,-0.0000
 0145,-0.00000938,-0.00001927,0.00001571,0.00001313,-0.00000303,0.00000
 640,0.00002827,-0.00001340,-0.00000929,0.00000153,0.00000799,-0.000001
 41,-0.00000519,0.00001225,-0.00002533,-0.00002647,0.00000702,-0.000000
 82,-0.00000169,-0.00000265,-0.00000101,0.00000271,-0.00000352,-0.00000
 188,0.00000244,-0.00000088,0.00000068,-0.00000055,-0.00013831,0.000286
 54,-0.00000305,0.00003098,-0.00006658,0.00005567,0.00027890,-0.0003507
 8,0.00010491,0.00002401,0.00000844,0.00001379,-0.00009639,-0.00011267,
 -0.00003396,-0.00001300,-0.00002204,0.00001306,-0.08691919,-0.09902521
 ,-0.05194871,0.00735415,0.00408925,0.00545404,0.09680161,0.11469123,-0
 .00013583,0.00060414,0.00016648,0.00016373,-0.00059879,-0.00015624,-0.
 00063931,0.00065630,0.00082371,0.00021625,-0.00006478,-0.00003313,0.00
 178439,0.00176205,-0.00079704,-0.00010061,0.00015998,0.00021635,0.0000
 4356,0.00004382,0.00010589,0.00022347,0.00138870,0.00003318,0.00000570
 ,-0.00000448,0.00002449,0.00013618,0.00006067,0.00053419,0.00002230,-0
 .00002479,-0.00002829,0.00006368,-0.00026217,-0.00005695,-0.00001857,-
 0.00000765,0.00001254,-0.00011907,0.00004383,-0.00003953,-0.00004040,-
 0.00001205,0.00004303,0.00001214,0.00002136,0.00000745,-0.00000399,0.0
 0002390,0.00002219,0.00003334,-0.00004590,0.00006790,0.00002621,-0.000
 00756,0.00000379,-0.00001189,-0.00000007,-0.00000033,-0.00000212,0.000
 00102,0.00000971,-0.00000249,-0.00000352,0.00000626,-0.00003182,-0.000
 24115,-0.00017786,-0.00003183,0.00013017,0.00006724,0.00008988,0.00000
 605,-0.00010895,-0.00000229,0.00004611,-0.00000219,-0.00000153,-0.0000
 1652,-0.00000880,0.00001793,0.00002908,0.00002088,-0.09264937,-0.05441
 348,-0.10458003,0.01324827,0.00824155,0.00763307,0.10442940,0.05783182
 ,0.11157165,0.00018446,-0.00109900,-0.00008738,-0.00155681,-0.00062597
 ,-0.00048291,-0.00021940,-0.00137041,-0.00021810,-0.00053241,-0.000021
 15,0.00048034,-0.00166810,0.00322612,-0.00441016,-0.00019706,0.0004679
 8,-0.00030029,0.00029636,-0.00007002,0.00017249,-0.00030366,0.00132328
 ,0.00009616,0.00003501,0.00003541,-0.00005662,0.00043445,0.00006115,-0
 .00042233,-0.00000900,0.00007991,-0.00005699,-0.00023822,0.00030778,0.
 00020766,-0.00002336,-0.00000023,-0.00007135,0.00009049,-0.00010875,0.
 00007751,0.00016474,0.00006623,-0.00007223,-0.00005163,-0.00003507,0.0
 0006647,0.00006183,-0.00003136,-0.00004914,-0.00001629,0.00012248,-0.0
 0006026,-0.00003564,-0.00000021,-0.00001092,0.00001496,-0.00000378,-0.
 00000384,0.00001566,0.00000127,-0.00001783,-0.00000051,0.00000788,-0.0
 0000930,-0.00002139,0.00034153,0.00022967,0.00009645,-0.00013866,-0.00
 002905,0.00000359,0.00000229,0.00001098,0.00000553,-0.00007371,0.00000
 888,-0.00000288,0.00002075,-0.00000190,0.00001034,0.00000017,0.0000080
 9,-0.04633264,0.00071279,-0.00658096,0.00068085,-0.00994800,0.02937150
 ,-0.00063774,0.00922801,-0.02672532,0.04975205,-0.00023130,-0.00084712
 ,0.00065458,-0.00154700,0.00001930,-0.00027097,0.00092098,0.00091453,-
 0.00023010,0.00104782,-0.00040612,-0.00102094,0.00271292,-0.01432895,0
 .03326090,0.00102866,-0.00018581,-0.00090687,-0.00006228,-0.00017917,0
 .00016953,-0.00128649,-0.00283635,-0.00065164,-0.00009244,-0.00002108,
 0.00011488,-0.00012246,0.00002967,0.00058914,0.00009509,-0.00026722,0.
 00001261,-0.00009708,0.00050510,-0.00004690,0.00000399,0.00000368,-0.0
 0001313,0.00006242,0.00001791,0.00002639,0.00001665,0.00004712,-0.0000
 1465,-0.00001060,-0.00005321,0.00000076,-0.00000627,0.,-0.00002867,0.0
 0003127,-0.00006084,-0.00005353,-0.00003073,0.00001345,-0.00000131,0.0
 0000725,-0.00000420,0.00000056,0.00000573,-0.00000500,-0.00000735,0.00
 000115,0.00000246,-0.00000515,-0.00006205,0.00035435,-0.00013766,-0.00
 001741,-0.00038358,-0.00006890,-0.00004851,0.00004445,-0.00003365,-0.0
 0001893,-0.00010966,0.00001743,-0.00001363,-0.00000107,0.00002252,-0.0
 0000541,-0.00002548,0.00000097,0.00096728,-0.07274215,0.07768932,-0.00
 122088,0.00276282,-0.00934902,0.00045094,0.00474333,-0.01534763,-0.002
 47869,0.08299886,-0.00041968,0.00066430,0.00024255,-0.00014916,-0.0009
 4595,0.00001051,-0.00111798,-0.00064246,0.00011090,-0.00005148,-0.0001
 0946,0.00003693,-0.00111386,0.00114935,0.00266310,0.00009817,0.0005495
 5,-0.00033972,0.00028902,-0.00007612,0.00013112,0.00046617,0.00034909,
 -0.00019607,0.00001645,0.00002807,0.00004011,0.00031864,0.00001169,-0.
 00004805,-0.00001285,0.00004400,0.00000886,0.00025709,-0.00005518,0.00
 008847,-0.00003811,-0.00001089,0.00001094,-0.00022236,0.00003590,-0.00
 003552,0.00001752,-0.00002205,-0.00000963,0.00003368,0.00000729,0.0000
 4411,0.00002723,0.00004357,0.00002728,-0.00000236,-0.00007595,0.000055
 16,0.00001724,0.00000704,0.00000685,0.00000016,0.00000791,-0.00000068,
 -0.00001555,-0.00000348,0.00001549,0.00000588,-0.00000313,0.00000380,0
 .00009083,-0.00062237,-0.00017466,-0.00008768,0.00004814,-0.00003453,-
 0.00000475,0.00002722,-0.00000416,0.00001710,0.00007712,-0.00000986,0.
 00001059,0.00001322,0.00000817,0.00001625,0.00002184,0.00000853,-0.006
 60007,0.07496327,-0.27785842,-0.00123946,0.00441283,-0.01629893,0.0004
 5622,0.00447718,-0.01538063,0.00893712,-0.08437153,0.30687798\\0.00002
 077,0.00001205,0.00004465,-0.00001383,-0.00000961,-0.00000606,-0.00000
 060,-0.00000186,-0.00001290,-0.00000501,0.00000515,-0.00000022,-0.0000
 0451,-0.00000283,0.00000278,0.00001093,0.00000921,0.00001230,-0.000001
 73,0.00000706,-0.00000172,-0.00000738,0.00000554,0.00000238,0.00000617
 ,0.00000443,-0.00000239,-0.00000192,0.00000396,0.00000525,0.00000110,0
 .00000701,0.00000340,-0.00002267,-0.00001006,-0.00002231,-0.00000192,-
 0.00001213,-0.00001981,-0.00000424,0.00000043,0.00000917,0.00001851,0.
 00000038,0.00000837,-0.00000352,-0.00000295,0.00001445,0.00001002,-0.0
 0000339,-0.00000518,-0.00000344,-0.00000554,0.00000083,0.00000101,-0.0
 0000208,-0.00000447,0.00000202,-0.00000892,-0.00000494,-0.00000463,-0.
 00000619,-0.00000164,-0.00000072,-0.00000876,-0.00000242,0.00001702,0.
 00001294,-0.00003912,-0.00001617,-0.00000582,0.00001796,0.00000996,-0.
 00001742,-0.00001417,-0.00000036,0.00000291,0.00000207,0.00000566,0.00
 000916,0.00000119,0.00000501,0.00000322,-0.00000153,-0.00000018,0.0000
 1560,0.00000008,-0.00000284,-0.00000034,0.00000434,-0.00000693,0.00000
 027,0.00000223,-0.00000559,-0.00000143,0.00000743\\\@


 DESK:  A WASTEBASKET WITH DRAWERS.
 Job cpu time:       0 days  0 hours 16 minutes 49.1 seconds.
 File lengths (MBytes):  RWF=    145 Int=      0 D2E=      0 Chk=      4 Scr=      1
 Normal termination of Gaussian 09 at Wed Oct 19 23:47:35 2016.
