
Running Job 1 of 2 MeMe_M0001_freq.inp
qchem MeMe_M0001_freq.inp_30093.0 /home/chem/mssmsg/qchemscratch/qchem30093/ 12
/csc/minerva/software/q-chem/bin/mpi/mpirun_qchem -machinefile /var/spool/torque/4/aux//1217036.hpcmg2 -np 12 /csc/minerva/software/q-chem/exe/qcprog.exe MeMe_M0001_freq.inp_30093.0 /home/chem/mssmsg/qchemscratch/qchem30093/

Process 5 of 12 is on node271.cluster.local - thread support 0
initial socket setup ...start
initial socket setup ...done 
now start server 0 ... 
set process cleaner
set process cleaner
                  Welcome to Q-Chem
     A Quantum Leap Into The Future Of Chemistry


 Q-Chem 4.2, Q-Chem, Inc., Pleasanton, CA (2014).

 Y. Shao,  Z. Gan,  E. Epifanovsky,  A. T. B. Gilbert,  M. Wormit,  
 J. Kussmann,  A. W. Lange,  A. Behn,  J. Deng,  X. Feng,  D. Ghosh,  
 M. Goldey,  P. R. Horn,  L. D. Jacobson,  I. Kaliman,  R. Z. Khaliullin,  
 T. Kus,  A. Landau,  J. Liu,  E. I. Proynov,  Y. M. Rhee,  R. M. Richard,  
 M. A. Rohrdanz,  R. P. Steele,  E. J. Sundstrom,  H. L. Woodcock III,  
 P. M. Zimmerman,  D. Zuev,  B. Albrecht,  E. Alguire,  B. Austin,  
 G. J. O. Beran,  Y. A. Bernard,  E. Berquist,  K. Brandhorst,  
 K. B. Bravaya,  S. T. Brown,  D. Casanova,  C.-M. Chang,  Y. Chen,  
 S. H. Chien,  K. D. Closser,  D. L. Crittenden,  M. Diedenhofen,  
 R. A. DiStasio Jr.,  H. Do,  A. D. Dutoi,  R. G. Edgar,  S. Fatehi,  
 L. Fusti-Molnar,  A. Ghysels,  A. Golubeva-Zadorozhnaya,  J. Gomes,  
 M. W. D. Hanson-Heine,  P. H. P. Harbach,  A. W. Hauser,  E. G. Hohenstein,  
 Z. C. Holden,  T.-C. Jagau,  H. Ji,  B. Kaduk,  K. Khistyaev,  Jaehoon Kim,  
 Jihan Kim,  R. A. King,  P. Klunzinger,  D. Kosenkov,  T. Kowalczyk,  
 C. M. Krauter,  K. U. Lao,  A. Laurent,  K. V. Lawler,  S. V. Levchenko,  
 C. Y. Lin,  F. Liu,  E. Livshits,  R. C. Lochan,  A. Luenser,  P. Manohar,  
 S. F. Manzer,  S.-P. Mao,  N. Mardirossian,  A. V. Marenich,  S. A. Maurer,  
 N. J. Mayhall,  C. M. Oana,  R. Olivares-Amaya,  D. P. O'Neill,  
 J. A. Parkhill,  T. M. Perrine,  R. Peverati,  P. A. Pieniazek,  A. Prociuk,  
 D. R. Rehn,  E. Rosta,  N. J. Russ,  N. Sergueev,  S. M. Sharada,  
 S. Sharma,  D. W. Small,  A. Sodt,  T. Stein,  D. Stuck,  Y.-C. Su,  
 A. J. W. Thom,  T. Tsuchimochi,  L. Vogt,  O. Vydrov,  T. Wang,  
 M. A. Watson,  J. Wenzel,  A. White,  C. F. Williams,  V. Vanovschi,  
 S. Yeganeh,  S. R. Yost,  Z.-Q. You,  I. Y. Zhang,  X. Zhang,  Y. Zhao,  
 B. R. Brooks,  G. K. L. Chan,  D. M. Chipman,  C. J. Cramer,  
 W. A. Goddard III,  M. S. Gordon,  W. J. Hehre,  A. Klamt,  
 H. F. Schaefer III,  M. W. Schmidt,  C. D. Sherrill,  D. G. Truhlar,  
 A. Warshel,  X. Xu,  A. Aspuru-Guzik,  R. Baer,  A. T. Bell,  N. A. Besley,  
 J.-D. Chai,  A. Dreuw,  B. D. Dunietz,  T. R. Furlani,  S. R. Gwaltney,  
 C.-P. Hsu,  Y. Jung,  J. Kong,  D. S. Lambrecht,  W. Liang,  C. Ochsenfeld,  
 V. A. Rassolov,  L. V. Slipchenko,  J. E. Subotnik,  T. Van Voorhis,  
 J. M. Herbert,  A. I. Krylov,  P. M. W. Gill,  M. Head-Gordon

 Contributors to earlier versions of Q-Chem not listed above: 
 R. D. Adamson,  J. Baker,  E. F. C. Byrd,  A. K. Chakraborty,  C.-L. Cheng,  
 H. Dachsel,  R. J. Doerksen,  G. Hawkins,  A. Heyden,  S. Hirata,  
 G. Kedziora,  F. J. Keil,  C. Kelley,  P. P. Korambath,  W. Kurlancheek,  
 A. M. Lee,  M. S. Lee,  D. Liotard,  I. Lotan,  P. E. Maslen,  N. Nair,  
 D. Neuhauser,  R. Olson,  B. Peters,  J. Ritchie,  N. E. Schultz,  
 N. Shenvi,  A. C. Simmonett,  K. S. Thanthiriwatte,  Q. Wu,  W. Zhang

 Q-Chem 4.2.0 for Intel X86 Linux

 Parts of Q-Chem use Armadillo 4.100.2 (Dirt Cruiser).
 http://arma.sourceforge.net/

 Q-Chem begins on Wed Oct 19 21:41:40 2016  

Host: node271
0

     Scratch files written to /home/chem/mssmsg/qchemscratch/qchem30093.0//
 May2514 8580_ilyak 4884   
 Parallel job on  12  processors
Processing $rem in /csc/minerva/software/q-chem/config/preferences.
 MEM_TOTAL  2000 
Finally everything over in PARseQInput

--------------------------------------------------------------
User input:
--------------------------------------------------------------
$rem
mem_total       20000
mem_static      1000
exchange        b3lyp
basis           3-21G
jobtype         opt
$end

$molecule
0 1
C                  0.12686300   -0.72369000    0.95369800
H                  0.03095400   -1.81227100    0.92863400
C                 -1.10978600   -0.12432300    0.30123900
C                 -3.41218000    0.94860600   -0.84444200
C                 -2.12636900   -0.97343100   -0.15856500
C                 -1.24504600    1.26795400    0.17430300
C                 -2.40429300    1.78176900   -0.39401100
C                 -3.26861800   -0.42031100   -0.72905400
H                 -2.51256900    2.85581600   -0.48854800
H                 -4.05387700   -1.07719600   -1.08383100
H                 -4.30786900    1.36725800   -1.28606800
C                  1.41715600   -0.40725300    0.22563300
C                  3.79319500    0.08367300   -1.15061200
C                  1.47054100   -0.52981200   -1.15905500
C                  2.56486000   -0.04181800    0.91480400
C                  3.74494300    0.20596900    0.22871400
C                  2.64965000   -0.28699600   -1.84348500
H                  0.57558800   -0.80125500   -1.70756300
H                  2.52571800    0.05958700    1.99031900
H                  4.63219100    0.49648400    0.77767400
H                  2.67503700   -0.38403100   -2.92175200
H                  4.71547700    0.27729200   -1.68353700
O                  0.25149500   -0.32947600    2.31419600
H                 -0.60868500   -0.42758600    2.72489000
C                 -0.16614400    2.22792600    0.60164400
H                  0.26903500    1.95179200    1.55958700
H                 -0.56805300    3.23831200    0.67568000
H                  0.64563400    2.24075700   -0.12919600
C                 -2.02856800   -2.47710800   -0.06815600
H                 -1.16921100   -2.86441200   -0.61944600
H                 -2.92231800   -2.93717000   -0.48787800
H                 -1.93556900   -2.82275200    0.96369600
$end

--------------------------------------------------------------
 ----------------------------------------------------------------
             Standard Nuclear Orientation (Angstroms)
    I     Atom           X                Y                Z
 ----------------------------------------------------------------
    1      C      -0.1269483873    -0.6575955438    -0.9994488475
    2      H      -0.0356802376    -1.7458535550    -1.0463525766
    3      C       1.1104280826    -0.1081910824    -0.3056920415
    4      C       3.4141838232     0.8763892055     0.9141812586
    5      C       2.1221822792    -0.9903362286     0.0992999298
    6      C       1.2511881099     1.2720100442    -0.0864325480
    7      C       2.4110330708     1.7419654491     0.5175060646
    8      C       3.2651886002    -0.4812324236     0.7079723191
    9      H       2.5235611239     2.8069038860     0.6832813873
   10      H       4.0467145109    -1.1636083632     1.0203449301
   11      H       4.3104189217     1.2609384396     1.3847621130
   12      C      -1.4178760384    -0.3844625881    -0.2551564095
   13      C      -3.7955657966     0.0245682246     1.1448097239
   14      C      -1.4755401531    -0.5982730783     1.1182304435
   15      C      -2.5621571097     0.0308491477    -0.9213852517
   16      C      -3.7430503019     0.2377834198    -0.2232568624
   17      C      -2.6554757196    -0.3961930910     1.8143754043
   18      H      -0.5832297233    -0.9093747262     1.6497199185
   19      H      -2.5196653233     0.2031274571    -1.9877164468
   20      H      -4.6275745063     0.5679112440    -0.7539145788
   21      H      -2.6842018093    -0.5643535221     2.8837756546
   22      H      -4.7184722239     0.1864767285     1.6871480162
   23      O      -0.2462240038    -0.1735546380    -2.3311283698
   24      H       0.6146499334    -0.2479931091    -2.7453260815
   25      C       0.1774929970     2.2628956878    -0.4518371764
   26      H      -0.2562354459     2.0527505809    -1.4270316243
   27      H       0.5838413966     3.2742007094    -0.4577679361
   28      H      -0.6362081823     2.2308176260     0.2762676583
   29      C       2.0183136382    -2.4842755922    -0.0908048478
   30      H       1.1558418997    -2.9034996765     0.4315103571
   31      H       2.9089791584    -2.9750407013     0.2996784458
   32      H       1.9266699712    -2.7603752176    -1.1435192316
 ----------------------------------------------------------------
 Molecular Point Group                 C1    NOp =  1
 Largest Abelian Subgroup              C1    NOp =  1
 Nuclear Repulsion Energy =  1063.3304015774 hartrees
 There are       57 alpha and       57 beta electrons
 Requested basis set is 3-21G
 There are 80 shells and 176 basis functions

Total QAlloc Memory Limit  20000 MB
Mega-Array Size       978 MB
MEM_STATIC part      1000 MB
 A cutoff of  1.0D-11 yielded   2378 shell pairs
 There are     13028 function pairs
 Smallest overlap matrix eigenvalue = 1.21E-03

  Scale SEOQF with 1.000000e-01/1.000000e-01/1.000000e-01

 Standard Electronic Orientation quadrupole field applied
 Nucleus-field energy     =     0.0000000204 hartrees
 Guess from superposition of atomic densities
 Warning:  Energy on first SCF cycle will be non-variational
 A restricted hybrid HF-DFT SCF calculation will be
 performed using Pulay DIIS extrapolation
 Exchange:     0.2000 Hartree-Fock + 0.0800 Slater + 0.7200 Becke88
 Correlation:  0.8100 LYP + 0.1900 VWN1RPA
 Using SG-1 standard quadrature grid
 SCF converges when DIIS error is below 1.0E-08
 ---------------------------------------
  Cycle       Energy         DIIS Error
 ---------------------------------------
    1    -656.8988495085      7.58E-02
    2    -652.6380317425      7.44E-03
    3    -652.6581353967      7.20E-03
    4    -652.8460284073      1.24E-03
    5    -652.8506141581      4.54E-04
    6    -652.8514173995      1.62E-04
    7    -652.8515251630      2.87E-05
    8    -652.8515276676      1.26E-05
    9    -652.8515283146      3.14E-06
   10    -652.8515283555      6.99E-07
   11    -652.8515283576      1.49E-07
   12    -652.8515283573      7.50E-08
   13    -652.8515283580      1.36E-08
   14    -652.8515283576      6.52E-09 Convergence criterion met
 ---------------------------------------
 SCF time:  CPU 6.08 s  wall 14.76 s
 SCF   energy in the final basis set = -652.8515283576
 Total energy in the final basis set = -652.8515283576
 Analysis of SCF Wavefunction
 
 --------------------------------------------------------------
                    Orbital Energies (a.u.)
 --------------------------------------------------------------
 
 Alpha MOs
 -- Occupied --
-19.032 -10.178 -10.138 -10.133 -10.129 -10.128 -10.123 -10.122
-10.120 -10.120 -10.118 -10.118 -10.118 -10.117 -10.113 -10.100
 -1.032  -0.871  -0.858  -0.788  -0.784  -0.752  -0.743  -0.707
 -0.682  -0.667  -0.609  -0.597  -0.581  -0.573  -0.523  -0.512
 -0.506  -0.476  -0.450  -0.444  -0.441  -0.434  -0.422  -0.420
 -0.417  -0.409  -0.407  -0.403  -0.371  -0.364  -0.354  -0.349
 -0.344  -0.342  -0.337  -0.312  -0.269  -0.246  -0.242  -0.239
 -0.235
 -- Virtual --
 -0.004   0.008   0.011   0.016   0.102   0.115   0.122   0.132
  0.153   0.158   0.167   0.168   0.175   0.188   0.196   0.200
  0.207   0.214   0.218   0.226   0.234   0.235   0.254   0.271
  0.279   0.289   0.297   0.340   0.343   0.371   0.373   0.378
  0.396   0.403   0.428   0.559   0.589   0.594   0.599   0.648
  0.682   0.687   0.694   0.705   0.709   0.718   0.720   0.729
  0.735   0.752   0.760   0.762   0.777   0.785   0.802   0.809
  0.814   0.820   0.833   0.842   0.852   0.861   0.868   0.880
  0.899   0.915   0.923   0.927   0.946   0.962   0.989   0.992
  0.998   1.013   1.023   1.027   1.049   1.071   1.075   1.082
  1.119   1.122   1.126   1.138   1.153   1.173   1.196   1.234
  1.246   1.303   1.309   1.357   1.362   1.416   1.424   1.459
  1.466   1.511   1.530   1.546   1.552   1.565   1.574   1.602
  1.666   1.690   1.722   1.784   1.859   1.890   1.935   1.980
  2.000   2.013   2.100   2.260   2.501   2.510   3.223
 --------------------------------------------------------------
 
          Ground-State Mulliken Net Atomic Charges

     Atom                 Charge (a.u.)
  ----------------------------------------
      1 C                    -0.056554
      2 H                     0.216729
      3 C                    -0.031758
      4 C                    -0.179375
      5 C                     0.006100
      6 C                     0.020965
      7 C                    -0.182773
      8 C                    -0.183422
      9 H                     0.178542
     10 H                     0.175584
     11 H                     0.183322
     12 C                     0.013115
     13 C                    -0.187670
     14 C                    -0.186306
     15 C                    -0.186250
     16 C                    -0.183952
     17 C                    -0.185033
     18 H                     0.191603
     19 H                     0.205624
     20 H                     0.182311
     21 H                     0.182465
     22 H                     0.181340
     23 O                    -0.560488
     24 H                     0.355386
     25 C                    -0.613086
     26 H                     0.221385
     27 H                     0.184864
     28 H                     0.230250
     29 C                    -0.608488
     30 H                     0.212382
     31 H                     0.200789
     32 H                     0.202403
  ----------------------------------------
  Sum of atomic charges =     0.000000

 -----------------------------------------------------------------
                    Cartesian Multipole Moments
 -----------------------------------------------------------------
    Charge (ESU x 10^10)
                 0.0000
    Dipole Moment (Debye)
         X       1.4331      Y      -0.6273      Z       0.1476
       Tot       1.5714
    Quadrupole Moments (Debye-Ang)
        XX     -89.0067     XY      -3.3231     YY     -91.8764
        XZ      -1.5961     YZ       0.4213     ZZ     -92.5066
    Octopole Moments (Debye-Ang^2)
       XXX      -8.9632    XXY       7.9083    XYY      20.0149
       YYY       2.7588    XXZ      11.3775    XYZ       5.9814
       YYZ      -4.3179    XZZ      -1.2826    YZZ      -5.1268
       ZZZ     -15.8622
    Hexadecapole Moments (Debye-Ang^3)
      XXXX   -3007.1442   XXXY     -58.3028   XXYY    -697.2535
      XYYY      -1.6275   YYYY    -913.3452   XXXZ      56.5867
      XXYZ       4.1266   XYYZ      16.4657   YYYZ       9.3048
      XXZZ    -617.5864   XYZZ      -4.9277   YYZZ    -278.8314
      XZZZ     -53.1920   YZZZ      -2.2949   ZZZZ    -654.9012
 -----------------------------------------------------------------
 Calculating analytic gradient of the SCF energy
 Gradient of Coulomb and Exchange Energy
            1           2           3           4           5           6
    1  -1.3293557   0.2343990   2.6919023  -8.5124763  -3.6740278   1.7580474
    2  -1.4986514   5.3332191   3.4792929  -3.2760092  10.0194447  -9.0245417
    3  -0.1867155   0.7505830   3.2909297  -3.8193606   0.4688757   0.9542135
            7           8           9          10          11          12
    1  -5.1870354  -8.2028226  -1.2274437  -4.8223604  -5.0760798  -2.7067310
    2  -7.0333077   2.3963617  -6.1785150   3.5510517  -2.1463739   4.2175126
    3  -2.1029312  -2.9915246  -1.1177627  -1.9253779  -2.6080802   2.5000513
           13          14          15          16          17          18
    1   8.3453269   2.3593537   7.5094738   8.7302117   4.2889086  -4.7977164
    2  -0.7333417   2.9192039  -0.5773616  -1.7289476   1.3177267   2.1955658
    3  -4.1803351  -5.5537684   3.9720031   2.5349834  -7.9762668  -4.1517880
           19          20          21          22          23          24
    1   1.0035177   5.0715148   0.5046080   5.1064761   6.6223084  -5.4452537
    2  -1.1283217  -1.7450158   0.9951483  -0.8317075   0.2012066   0.7358185
    3   6.5667693   2.8112532  -6.0710118  -2.9307284  16.8678507   3.1167633
           25          26          27          28          29          30
    1  -2.6542893   2.0398346  -1.3003515   3.7488077  -4.3681763   3.2634502
    2  -7.1725786  -0.8812065  -5.0766744  -0.9570794   4.7288539   2.8113152
    3   0.2667996   4.5369207   0.3023398  -3.4874297  -0.4292768  -2.4012145
           31          32
    1  -3.8327484  -0.1412726
    2   2.9953825   2.0925298
    3  -1.5209276   4.5141637
 Gradient of SCF Energy
            1           2           3           4           5           6
    1  -0.0023321  -0.0014305   0.0067732  -0.0071133  -0.0010173   0.0006367
    2   0.0122830   0.0044178   0.0025622  -0.0032674   0.0009862  -0.0008876
    3  -0.0144077  -0.0029031  -0.0028913  -0.0036648  -0.0000117   0.0023973
            7           8           9          10          11          12
    1  -0.0018216  -0.0072757   0.0002369  -0.0004868  -0.0008016  -0.0038981
    2  -0.0092213   0.0059763  -0.0009847   0.0007637  -0.0003052  -0.0015870
    3  -0.0019308  -0.0028210   0.0000995  -0.0002266  -0.0004710  -0.0005003
           13          14          15          16          17          18
    1   0.0076644  -0.0076775  -0.0004013   0.0071789   0.0006376  -0.0006938
    2  -0.0013211   0.0032590  -0.0017881  -0.0022546   0.0017337  -0.0001351
    3  -0.0044384  -0.0050716   0.0106282   0.0047023  -0.0089264   0.0003480
           19          20          21          22          23          24
    1  -0.0017829   0.0008176   0.0000952   0.0008121   0.0344928  -0.0281114
    2   0.0005172  -0.0003319   0.0000591  -0.0001908  -0.0178613   0.0012874
    3   0.0005264   0.0005489  -0.0010064  -0.0006610   0.0109002   0.0155040
           25          26          27          28          29          30
    1   0.0049775  -0.0005471  -0.0014756   0.0020707   0.0014342   0.0021767
    2  -0.0042220   0.0043480  -0.0030514   0.0005031   0.0059075   0.0008947
    3   0.0025403   0.0028167  -0.0000552  -0.0020012   0.0010004  -0.0020248
           31          32
    1  -0.0028580  -0.0002803
    2   0.0012067   0.0007037
    3  -0.0012261   0.0032270
 Max gradient component =       3.449E-02
 RMS gradient           =       6.483E-03
 Gradient time:  CPU 1.44 s  wall 4.02 s
 Geometry Optimization Parameters
   NAtoms,    NIC,     NZ,  NCons,   NDum,   NFix, NCnnct, MaxDiis
       32     227       0       0       0       0       0       0


** GEOMETRY OPTIMIZATION IN DELOCALIZED INTERNAL COORDINATES **
   Searching for a Minimum

   Optimization Cycle:   1

                       Coordinates (Angstroms)
     ATOM                X               Y               Z
      1  C        -0.1269483873   -0.6575955438   -0.9994488475
      2  H        -0.0356802376   -1.7458535550   -1.0463525766
      3  C         1.1104280826   -0.1081910824   -0.3056920415
      4  C         3.4141838232    0.8763892055    0.9141812586
      5  C         2.1221822792   -0.9903362286    0.0992999298
      6  C         1.2511881099    1.2720100442   -0.0864325480
      7  C         2.4110330708    1.7419654491    0.5175060646
      8  C         3.2651886002   -0.4812324236    0.7079723191
      9  H         2.5235611239    2.8069038860    0.6832813873
     10  H         4.0467145109   -1.1636083632    1.0203449301
     11  H         4.3104189217    1.2609384396    1.3847621130
     12  C        -1.4178760384   -0.3844625881   -0.2551564095
     13  C        -3.7955657966    0.0245682246    1.1448097239
     14  C        -1.4755401531   -0.5982730783    1.1182304435
     15  C        -2.5621571097    0.0308491477   -0.9213852517
     16  C        -3.7430503019    0.2377834198   -0.2232568624
     17  C        -2.6554757196   -0.3961930910    1.8143754043
     18  H        -0.5832297233   -0.9093747262    1.6497199185
     19  H        -2.5196653233    0.2031274571   -1.9877164468
     20  H        -4.6275745063    0.5679112440   -0.7539145788
     21  H        -2.6842018093   -0.5643535221    2.8837756546
     22  H        -4.7184722239    0.1864767285    1.6871480162
     23  O        -0.2462240038   -0.1735546380   -2.3311283698
     24  H         0.6146499334   -0.2479931091   -2.7453260815
     25  C         0.1774929970    2.2628956878   -0.4518371764
     26  H        -0.2562354459    2.0527505809   -1.4270316243
     27  H         0.5838413966    3.2742007094   -0.4577679361
     28  H        -0.6362081823    2.2308176260    0.2762676583
     29  C         2.0183136382   -2.4842755922   -0.0908048478
     30  H         1.1558418997   -2.9034996765    0.4315103571
     31  H         2.9089791584   -2.9750407013    0.2996784458
     32  H         1.9266699712   -2.7603752176   -1.1435192316
   Point Group: c1    Number of degrees of freedom:    90


   Energy is   -652.851528358


 Attempting to Generate Delocalized Internal Coordinates
 GETINT wrote B to file, NVib is           90
 calling HSSCONV
 HCONV 3*NATOMS:           96
 wrote HINT to file
  writing hessian 

 90 Hessian modes will be used to form the next step
  Hessian Eigenvalues:
     0.006366    0.007201    0.007914    0.008378    0.012744    0.015731
     0.016758    0.017120    0.017186    0.022234    0.023402    0.023811
     0.024014    0.024060    0.024130    0.024136    0.024161    0.024207
     0.024229    0.024241    0.024284    0.024486    0.024770    0.053694
     0.063686    0.070507    0.071889    0.072791    0.073974    0.084428
     0.159974    0.159987    0.159997    0.159999    0.160000    0.160000
     0.160000    0.160000    0.160000    0.160000    0.160000    0.160000
     0.160000    0.160000    0.160000    0.191330    0.204794    0.219999
     0.220001    0.220843    0.234508    0.234728    0.249070    0.249795
     0.249912    0.249975    0.249994    0.302451    0.308584    0.313943
     0.317505    0.344585    0.345400    0.345630    0.345849    0.348237
     0.348916    0.350694    0.354920    0.355602    0.355734    0.356301
     0.356436    0.356523    0.356777    0.358745    0.421369    0.421706
     0.426648    0.431595    0.433198    0.456758    0.472364    0.474223
     0.474587    0.477380    0.479085    0.481165    0.485079    0.558559

 Minimum Search - Taking Simple RFO Step
 Searching for Lamda that Minimizes Along All modes
 Value Taken    Lamda =  -0.01177410
 Calculated Step too Large.  Step scaled by  0.798028
 Step Taken.  Stepsize is  0.300000

                             Maximum     Tolerance    Cnvgd?
         Gradient           0.020893      0.000300      NO
         Displacement       0.130112      0.001200      NO
         Energy change     *********      0.000001      NO


 New Cartesian Coordinates Obtained by Inverse Iteration

 Displacement from previous Coordinates is:  1.201123
 ----------------------------------------------------------------
             Standard Nuclear Orientation (Angstroms)
    I     Atom           X                Y                Z
 ----------------------------------------------------------------
    1      C      -0.1355996737    -0.6127929495    -1.0180188924
    2      H      -0.0440761578    -1.7023563726    -1.1215030828
    3      C       1.1112779697    -0.0986242056    -0.2969065730
    4      C       3.4284808153     0.8825780888     0.9395664801
    5      C       2.1118481594    -0.9948535001     0.1389650188
    6      C       1.2819096876     1.2897894650    -0.1189413546
    7      C       2.4447719546     1.7623338026     0.4970498935
    8      C       3.2599410929    -0.4860939256     0.7598258874
    9      H       2.5760035950     2.8313357133     0.6257531977
   10      H       4.0253696182    -1.1748924675     1.1002745502
   11      H       4.3249794765     1.2630368110     1.4155157496
   12      C      -1.4201295644    -0.3782856125    -0.2379455987
   13      C      -3.8133675165    -0.0563063267     1.1840975666
   14      C      -1.4773991884    -0.6773458683     1.1278822342
   15      C      -2.5676444806     0.0774089485    -0.8867153941
   16      C      -3.7585441675     0.2403315672    -0.1776162580
   17      C      -2.6673944260    -0.5178576331     1.8355722447
   18      H      -0.5832960524    -1.0187400599     1.6382011686
   19      H      -2.5129270232     0.3072848135    -1.9421530393
   20      H      -4.6433489649     0.5998968671    -0.6908116822
   21      H      -2.6996335921    -0.7492161223     2.8941867442
   22      H      -4.7385146285     0.0716804722     1.7340404037
   23      O      -0.3026234748     0.0025624077    -2.3225839866
   24      H       0.5605973897    -0.0135632825    -2.7903886077
   25      C       0.2321715670     2.2755406733    -0.5855324056
   26      H      -0.1544099558     1.9817532043    -1.5630302502
   27      H       0.6502871381     3.2845055034    -0.6465632607
   28      H      -0.6148327289     2.2945528962     0.1094470038
   29      C       1.9887321252    -2.5023351576    -0.0210569477
   30      H       1.1127779619    -2.8989615818     0.5039386496
   31      H       2.8721737325    -2.9947851365     0.3938038379
   32      H       1.9090018666    -2.8022063189    -1.0722605029
 ----------------------------------------------------------------
 Molecular Point Group                 C1    NOp =  1
 Largest Abelian Subgroup              C1    NOp =  1
 Nuclear Repulsion Energy =  1057.7652713076 hartrees
 There are       57 alpha and       57 beta electrons
 Applying Cartesian multipole field
    Component          Value
    ---------          -----
     (2,0,0)        1.00000E-11
     (0,2,0)        2.00000E-11
     (0,0,2)       -3.00000E-11
 Nucleus-field energy     =     0.0000000204 hartrees
 Requested basis set is 3-21G
 There are 80 shells and 176 basis functions
 A cutoff of  1.0D-11 yielded   2364 shell pairs
 There are     12963 function pairs
 Smallest overlap matrix eigenvalue = 1.29E-03
 Guess MOs from SCF MO coefficient file
Reading MOs from coefficient file
Reading MOs from coefficient file
 A restricted hybrid HF-DFT SCF calculation will be
 performed using Pulay DIIS extrapolation
 Exchange:     0.2000 Hartree-Fock + 0.0800 Slater + 0.7200 Becke88
 Correlation:  0.8100 LYP + 0.1900 VWN1RPA
 Using SG-1 standard quadrature grid
 SCF converges when DIIS error is below 1.0E-08
Geometry optimization detected.  Setting ReadMinima to 0
Setting SaveMinima to 0
 ---------------------------------------
  Cycle       Energy         DIIS Error
 ---------------------------------------
    1    -652.7244239766      2.58E-03
    2    -652.8556673256      4.36E-04
    3    -652.8553078234      6.28E-04
    4    -652.8564329536      4.58E-05
    5    -652.8564346899      4.15E-05
    6    -652.8564419471      9.68E-06
    7    -652.8564423206      3.97E-06
    8    -652.8564423833      1.18E-06
    9    -652.8564423891      3.56E-07
   10    -652.8564423894      8.39E-08
   11    -652.8564423895      2.83E-08
   12    -652.8564423898      8.46E-09 Convergence criterion met
 ---------------------------------------
 SCF time:  CPU 5.40 s  wall 15.43 s
 SCF   energy in the final basis set = -652.8564423898
 Total energy in the final basis set = -652.8564423898
 Analysis of SCF Wavefunction
 
 --------------------------------------------------------------
                    Orbital Energies (a.u.)
 --------------------------------------------------------------
 
 Alpha MOs
 -- Occupied --
-19.040 -10.183 -10.141 -10.134 -10.132 -10.131 -10.125 -10.124
-10.122 -10.122 -10.121 -10.120 -10.120 -10.119 -10.114 -10.097
 -1.022  -0.867  -0.853  -0.785  -0.782  -0.750  -0.740  -0.705
 -0.680  -0.665  -0.608  -0.595  -0.579  -0.570  -0.522  -0.508
 -0.503  -0.474  -0.449  -0.442  -0.440  -0.433  -0.421  -0.418
 -0.415  -0.407  -0.405  -0.402  -0.370  -0.361  -0.354  -0.349
 -0.342  -0.340  -0.336  -0.315  -0.268  -0.245  -0.242  -0.238
 -0.234
 -- Virtual --
 -0.006   0.007   0.009   0.015   0.098   0.113   0.120   0.128
  0.147   0.157   0.164   0.167   0.175   0.187   0.193   0.197
  0.206   0.213   0.219   0.225   0.228   0.237   0.250   0.263
  0.274   0.284   0.290   0.335   0.340   0.363   0.368   0.373
  0.389   0.399   0.419   0.553   0.580   0.587   0.592   0.650
  0.678   0.687   0.694   0.703   0.706   0.716   0.720   0.728
  0.733   0.747   0.756   0.759   0.773   0.782   0.797   0.806
  0.809   0.816   0.831   0.841   0.850   0.860   0.868   0.875
  0.895   0.912   0.920   0.923   0.941   0.967   0.989   0.990
  0.997   1.000   1.022   1.024   1.045   1.069   1.073   1.085
  1.113   1.121   1.122   1.138   1.149   1.173   1.200   1.226
  1.245   1.303   1.307   1.352   1.359   1.414   1.419   1.454
  1.461   1.506   1.526   1.541   1.545   1.561   1.584   1.600
  1.672   1.678   1.731   1.785   1.858   1.890   1.927   1.980
  1.985   2.000   2.093   2.270   2.487   2.495   3.199
 --------------------------------------------------------------
 
          Ground-State Mulliken Net Atomic Charges

     Atom                 Charge (a.u.)
  ----------------------------------------
      1 C                    -0.074108
      2 H                     0.218232
      3 C                    -0.024909
      4 C                    -0.180553
      5 C                     0.004082
      6 C                     0.024242
      7 C                    -0.186339
      8 C                    -0.185133
      9 H                     0.179614
     10 H                     0.176421
     11 H                     0.183832
     12 C                     0.018552
     13 C                    -0.187810
     14 C                    -0.189018
     15 C                    -0.184548
     16 C                    -0.185274
     17 C                    -0.185187
     18 H                     0.192816
     19 H                     0.208119
     20 H                     0.182789
     21 H                     0.183184
     22 H                     0.181947
     23 O                    -0.542550
     24 H                     0.353218
     25 C                    -0.621501
     26 H                     0.226324
     27 H                     0.180210
     28 H                     0.226625
     29 C                    -0.608095
     30 H                     0.210891
     31 H                     0.201078
     32 H                     0.202848
  ----------------------------------------
  Sum of atomic charges =     0.000000

 -----------------------------------------------------------------
                    Cartesian Multipole Moments
 -----------------------------------------------------------------
    Charge (ESU x 10^10)
                 0.0000
    Dipole Moment (Debye)
         X       1.4285      Y      -0.7511      Z      -0.0757
       Tot       1.6157
    Quadrupole Moments (Debye-Ang)
        XX     -89.3129     XY      -2.8890     YY     -92.1525
        XZ      -1.6210     YZ      -0.3925     ZZ     -91.9244
    Octopole Moments (Debye-Ang^2)
       XXX      -9.8017    XXY       8.2424    XYY      20.5233
       YYY       1.7526    XXZ      12.9123    XYZ       5.5762
       YYZ      -4.7849    XZZ      -0.8062    YZZ      -5.3890
       ZZZ     -20.6584
    Hexadecapole Moments (Debye-Ang^3)
      XXXX   -3026.5132   XXXY     -74.2069   XXYY    -702.0860
      XYYY     -20.6024   YYYY    -932.8195   XXXZ      56.0157
      XXYZ       9.3346   XYYZ      16.7081   YYYZ      39.6922
      XXZZ    -623.5690   XYZZ      -6.5612   YYZZ    -283.7773
      XZZZ     -54.0111   YZZZ      22.2622   ZZZZ    -663.1342
 -----------------------------------------------------------------
 Calculating analytic gradient of the SCF energy
 Gradient of Coulomb and Exchange Energy
            1           2           3           4           5           6
    1  -1.1458901   0.2075562   3.0244704  -8.4162047  -3.8100603   1.6725816
    2  -1.0669346   5.4376714   3.3067007  -3.2119377  10.0320532  -8.7971975
    3   0.4398588   0.7638081   2.7661848  -3.9569110   0.3129802   1.3474309
            7           8           9          10          11          12
    1  -5.3952560  -8.1493078  -1.3010288  -4.7107157  -5.0474116  -2.9930870
    2  -7.0844955   2.4365065  -6.1850070   3.5833989  -2.1169510   3.9178388
    3  -2.1666344  -3.1420259  -0.9031125  -2.0713120  -2.6281682   2.4935260
           13          14          15          16          17          18
    1   8.3162652   2.2481571   7.4456132   8.7390783   4.2096420  -4.7921006
    2  -0.5081017   3.1831216  -0.8300761  -1.8641031   1.7320257   2.3898578
    3  -4.2357052  -5.6949534   3.8776508   2.3685573  -7.9274604  -3.9625581
           19          20          21          22          23          24
    1   0.9658388   5.0556782   0.5150864   5.0859175   6.7830548  -5.0795114
    2  -1.4673786  -1.8948095   1.3360936  -0.6502790  -0.5337274   0.1870415
    3   6.4644560   2.7094351  -5.9747648  -2.9588834  16.4525908   3.4366411
           25          26          27          28          29          30
    1  -2.5885404   1.5280587  -1.3726296   3.8991172  -4.1915392   3.2874560
    2  -7.1305791  -0.6998586  -5.0295077  -1.2083312   4.8431441   2.7155318
    3   0.5110345   4.3324490   0.6421128  -3.3202179  -0.4131842  -2.4219008
           31          32
    1  -3.7744225  -0.2158657
    2   2.9775367   2.2007529
    3  -1.6222333   4.4813093
 Gradient of SCF Energy
            1           2           3           4           5           6
    1  -0.0039427  -0.0014051   0.0006143  -0.0008273   0.0005266  -0.0019979
    2   0.0057522   0.0001923   0.0015336  -0.0006416  -0.0013846  -0.0007366
    3  -0.0081812   0.0032020   0.0005755  -0.0001111  -0.0011850   0.0005111
            7           8           9          10          11          12
    1  -0.0002570  -0.0006623   0.0002793   0.0000649  -0.0000805   0.0004188
    2  -0.0014080   0.0011650  -0.0000149   0.0001366   0.0000666  -0.0012812
    3  -0.0004351  -0.0005593  -0.0000001   0.0000652  -0.0001388  -0.0024817
           13          14          15          16          17          18
    1   0.0009443  -0.0015240   0.0016418   0.0010340   0.0003972   0.0000127
    2  -0.0000246   0.0005672  -0.0005318  -0.0002470   0.0003680  -0.0004449
    3  -0.0004988  -0.0004690   0.0025064   0.0004884  -0.0010385   0.0001250
           19          20          21          22          23          24
    1  -0.0004883   0.0000592   0.0000534   0.0000366   0.0123855  -0.0092222
    2   0.0003332  -0.0000599  -0.0000678   0.0000152  -0.0019247   0.0015683
    3  -0.0005879  -0.0000202  -0.0000503  -0.0001312   0.0066164   0.0030704
           25          26          27          28          29          30
    1   0.0019944  -0.0003629  -0.0007559   0.0000814   0.0011346   0.0006295
    2  -0.0052885   0.0011134  -0.0004756   0.0002382   0.0023259  -0.0003782
    3   0.0018974  -0.0022238  -0.0009664  -0.0005455   0.0006631  -0.0005286
           31          32
    1  -0.0006725  -0.0001097
    2  -0.0000375  -0.0004283
    3  -0.0003447   0.0007763
 Max gradient component =       1.239E-02
 RMS gradient           =       2.329E-03
 Gradient time:  CPU 1.29 s  wall 2.62 s
 Geometry Optimization Parameters
   NAtoms,    NIC,     NZ,  NCons,   NDum,   NFix, NCnnct, MaxDiis
       32     227       0       0       0       0       0       0

 Cartesian Hessian Update
 Hessian Updated using BFGS Update


** GEOMETRY OPTIMIZATION IN DELOCALIZED INTERNAL COORDINATES **
   Searching for a Minimum

   Optimization Cycle:   2

                       Coordinates (Angstroms)
     ATOM                X               Y               Z
      1  C        -0.1355996737   -0.6127929495   -1.0180188924
      2  H        -0.0440761578   -1.7023563726   -1.1215030828
      3  C         1.1112779697   -0.0986242056   -0.2969065730
      4  C         3.4284808153    0.8825780888    0.9395664801
      5  C         2.1118481594   -0.9948535001    0.1389650188
      6  C         1.2819096876    1.2897894650   -0.1189413546
      7  C         2.4447719546    1.7623338026    0.4970498935
      8  C         3.2599410929   -0.4860939256    0.7598258874
      9  H         2.5760035950    2.8313357133    0.6257531977
     10  H         4.0253696182   -1.1748924675    1.1002745502
     11  H         4.3249794765    1.2630368110    1.4155157496
     12  C        -1.4201295644   -0.3782856125   -0.2379455987
     13  C        -3.8133675165   -0.0563063267    1.1840975666
     14  C        -1.4773991884   -0.6773458683    1.1278822342
     15  C        -2.5676444806    0.0774089485   -0.8867153941
     16  C        -3.7585441675    0.2403315672   -0.1776162580
     17  C        -2.6673944260   -0.5178576331    1.8355722447
     18  H        -0.5832960524   -1.0187400599    1.6382011686
     19  H        -2.5129270232    0.3072848135   -1.9421530393
     20  H        -4.6433489649    0.5998968671   -0.6908116822
     21  H        -2.6996335921   -0.7492161223    2.8941867442
     22  H        -4.7385146285    0.0716804722    1.7340404037
     23  O        -0.3026234748    0.0025624077   -2.3225839866
     24  H         0.5605973897   -0.0135632825   -2.7903886077
     25  C         0.2321715670    2.2755406733   -0.5855324056
     26  H        -0.1544099558    1.9817532043   -1.5630302502
     27  H         0.6502871381    3.2845055034   -0.6465632607
     28  H        -0.6148327289    2.2945528962    0.1094470038
     29  C         1.9887321252   -2.5023351576   -0.0210569477
     30  H         1.1127779619   -2.8989615818    0.5039386496
     31  H         2.8721737325   -2.9947851365    0.3938038379
     32  H         1.9090018666   -2.8022063189   -1.0722605029
   Point Group: c1    Number of degrees of freedom:    90


   Energy is   -652.856442390

 GETINT wrote B to file, NVib is           90
 Hessian Updated using BFGS Update

 83 Hessian modes will be used to form the next step
  Hessian Eigenvalues:
     0.007167    0.007876    0.007927    0.008377    0.012773    0.015871
     0.016853    0.017090    0.017936    0.022739    0.023684    0.023794
     0.024017    0.024060    0.024132    0.024138    0.024163    0.024207
     0.024229    0.024267    0.024288    0.024496    0.024770    0.055583
     0.069303    0.070653    0.071765    0.072792    0.074576    0.084521
     0.154334    0.159974    0.159989    0.159997    0.159999    0.160000
     0.160000    0.163371    0.185304    0.206165    0.219933    0.220001
     0.220870    0.233941    0.234933    0.243503    0.249171    0.249908
     0.249992    0.270859    0.302675    0.306563    0.316169    0.318687
     0.344805    0.345486    0.345564    0.345787    0.347924    0.348728
     0.353078    0.354940    0.355648    0.355829    0.356345    0.356480
     0.356644    0.357018    0.358781    0.383895    0.422746    0.431472
     0.432150    0.434641    0.455604    0.473040    0.473854    0.476516
     0.479036    0.479993    0.484986    0.494810    0.536354

 Minimum Search - Taking Simple RFO Step
 Searching for Lamda that Minimizes Along All modes
 Value Taken    Lamda =  -0.00278946
 Step Taken.  Stepsize is  0.193093

                             Maximum     Tolerance    Cnvgd?
         Gradient           0.009403      0.000300      NO
         Displacement       0.085613      0.001200      NO
         Energy change     -0.004914      0.000001      NO


 New Cartesian Coordinates Obtained by Inverse Iteration

 Displacement from previous Coordinates is:  0.925394
 ----------------------------------------------------------------
             Standard Nuclear Orientation (Angstroms)
    I     Atom           X                Y                Z
 ----------------------------------------------------------------
    1      C      -0.1321352003    -0.6142071317    -1.0212638163
    2      H      -0.0189503119    -1.7065155051    -1.1023506492
    3      C       1.1186891721    -0.0787909250    -0.3052293004
    4      C       3.4658588226     0.8658501444     0.9336040392
    5      C       2.1138338476    -0.9897811420     0.1242049659
    6      C       1.3053624037     1.3143629751    -0.1023333888
    7      C       2.4839244357     1.7647252104     0.5120002815
    8      C       3.2770066298    -0.5031646967     0.7434300341
    9      H       2.6222846672     2.8303344766     0.6625563289
   10      H       4.0343554541    -1.2073777842     1.0715240529
   11      H       4.3698021728     1.2293903406     1.4099894835
   12      C      -1.4246671902    -0.3700873093    -0.2411624909
   13      C      -3.8398782943    -0.0715688984     1.1636559656
   14      C      -1.4697387530    -0.5912456373     1.1439871553
   15      C      -2.5937981234    -0.0032821140    -0.9186010805
   16      C      -3.7963930489     0.1480955264    -0.2178144563
   17      C      -2.6719466854    -0.4431115239     1.8432045508
   18      H      -0.5606060925    -0.8584650743     1.6713739357
   19      H      -2.5405905851     0.1596525597    -1.9857858253
   20      H      -4.6960579641     0.4369598600    -0.7505782434
   21      H      -2.6967556053    -0.6109142573     2.9144283945
   22      H      -4.7707335329     0.0472954822     1.7071469630
   23      O      -0.3242045220    -0.0538544949    -2.3719246665
   24      H       0.5550466232    -0.0982094277    -2.8460335744
   25      C       0.2493874321     2.3336770731    -0.5033837980
   26      H      -0.1782293108     2.0489283068    -1.4647727747
   27      H       0.6822504969     3.3395773164    -0.5565881935
   28      H      -0.5677054359     2.3439088565     0.2295570283
   29      C       1.9631982923    -2.4998475733    -0.0533123677
   30      H       1.0792021357    -2.8832723971     0.4727479192
   31      H       2.8420542527    -3.0109974735     0.3550168966
   32      H       1.8767163724    -2.7826900494    -1.1112005745
 ----------------------------------------------------------------
 Molecular Point Group                 C1    NOp =  1
 Largest Abelian Subgroup              C1    NOp =  1
 Nuclear Repulsion Energy =  1051.7588130752 hartrees
 There are       57 alpha and       57 beta electrons
 Applying Cartesian multipole field
    Component          Value
    ---------          -----
     (2,0,0)        1.00000E-11
     (0,2,0)        2.00000E-11
     (0,0,2)       -3.00000E-11
 Nucleus-field energy     =     0.0000000205 hartrees
 Requested basis set is 3-21G
 There are 80 shells and 176 basis functions
 A cutoff of  1.0D-11 yielded   2355 shell pairs
 There are     12915 function pairs
 Smallest overlap matrix eigenvalue = 1.35E-03
 Guess MOs from SCF MO coefficient file
Reading MOs from coefficient file
Reading MOs from coefficient file
 A restricted hybrid HF-DFT SCF calculation will be
 performed using Pulay DIIS extrapolation
 Exchange:     0.2000 Hartree-Fock + 0.0800 Slater + 0.7200 Becke88
 Correlation:  0.8100 LYP + 0.1900 VWN1RPA
 Using SG-1 standard quadrature grid
 SCF converges when DIIS error is below 1.0E-08
Geometry optimization detected.  Setting ReadMinima to 0
Setting SaveMinima to 0
 ---------------------------------------
  Cycle       Energy         DIIS Error
 ---------------------------------------
    1    -652.7556764245      2.23E-03
    2    -652.8561938139      2.22E-04
    3    -652.8562335893      2.84E-04
    4    -652.8565432046      6.43E-05
    5    -652.8565556739      3.39E-05
    6    -652.8565602942      1.10E-05
    7    -652.8565607416      3.39E-06
    8    -652.8565607826      9.97E-07
    9    -652.8565607874      3.36E-07
   10    -652.8565607885      8.32E-08
   11    -652.8565607862      2.81E-08
   12    -652.8565607869      9.53E-09 Convergence criterion met
 ---------------------------------------
 SCF time:  CPU 5.36 s  wall 15.35 s
 SCF   energy in the final basis set = -652.8565607869
 Total energy in the final basis set = -652.8565607869
 Analysis of SCF Wavefunction
 
 --------------------------------------------------------------
                    Orbital Energies (a.u.)
 --------------------------------------------------------------
 
 Alpha MOs
 -- Occupied --
-19.039 -10.185 -10.143 -10.138 -10.135 -10.132 -10.128 -10.126
-10.124 -10.123 -10.122 -10.122 -10.121 -10.121 -10.115 -10.102
 -1.010  -0.864  -0.851  -0.784  -0.779  -0.749  -0.739  -0.703
 -0.680  -0.663  -0.607  -0.594  -0.578  -0.568  -0.520  -0.504
 -0.500  -0.473  -0.449  -0.441  -0.439  -0.431  -0.419  -0.417
 -0.415  -0.407  -0.404  -0.403  -0.372  -0.360  -0.353  -0.349
 -0.343  -0.340  -0.336  -0.315  -0.267  -0.244  -0.242  -0.238
 -0.235
 -- Virtual --
 -0.008   0.005   0.008   0.013   0.093   0.113   0.120   0.127
  0.144   0.156   0.163   0.164   0.173   0.187   0.191   0.196
  0.205   0.211   0.214   0.222   0.223   0.232   0.244   0.259
  0.269   0.277   0.284   0.332   0.337   0.358   0.364   0.368
  0.385   0.393   0.413   0.552   0.576   0.581   0.585   0.646
  0.676   0.686   0.693   0.701   0.705   0.713   0.718   0.726
  0.732   0.745   0.756   0.757   0.772   0.783   0.795   0.805
  0.807   0.816   0.828   0.840   0.848   0.858   0.868   0.872
  0.892   0.909   0.918   0.920   0.943   0.959   0.986   0.988
  0.991   0.996   1.018   1.022   1.042   1.070   1.072   1.081
  1.114   1.117   1.120   1.137   1.148   1.165   1.190   1.226
  1.243   1.303   1.306   1.347   1.354   1.407   1.417   1.449
  1.458   1.503   1.526   1.537   1.541   1.558   1.575   1.598
  1.664   1.678   1.717   1.779   1.854   1.885   1.923   1.971
  1.989   1.997   2.076   2.245   2.479   2.487   3.178
 --------------------------------------------------------------
 
          Ground-State Mulliken Net Atomic Charges

     Atom                 Charge (a.u.)
  ----------------------------------------
      1 C                    -0.077668
      2 H                     0.221352
      3 C                    -0.029956
      4 C                    -0.180912
      5 C                     0.009354
      6 C                     0.021421
      7 C                    -0.186317
      8 C                    -0.186330
      9 H                     0.180212
     10 H                     0.177379
     11 H                     0.184611
     12 C                     0.016101
     13 C                    -0.188016
     14 C                    -0.193219
     15 C                    -0.185420
     16 C                    -0.186082
     17 C                    -0.185497
     18 H                     0.194651
     19 H                     0.209805
     20 H                     0.183278
     21 H                     0.183504
     22 H                     0.182291
     23 O                    -0.535726
     24 H                     0.347356
     25 C                    -0.615676
     26 H                     0.223492
     27 H                     0.182934
     28 H                     0.226348
     29 C                    -0.607745
     30 H                     0.211770
     31 H                     0.200179
     32 H                     0.202525
  ----------------------------------------
  Sum of atomic charges =     0.000000

 -----------------------------------------------------------------
                    Cartesian Multipole Moments
 -----------------------------------------------------------------
    Charge (ESU x 10^10)
                 0.0000
    Dipole Moment (Debye)
         X       1.4799      Y      -0.7150      Z       0.0678
       Tot       1.6450
    Quadrupole Moments (Debye-Ang)
        XX     -89.0796     XY      -2.7221     YY     -92.2379
        XZ      -1.5181     YZ       0.2815     ZZ     -92.0639
    Octopole Moments (Debye-Ang^2)
       XXX     -11.0588    XXY       6.6500    XYY      21.7836
       YYY       3.0293    XXZ      12.8237    XYZ       5.1365
       YYZ      -4.3986    XZZ      -1.0061    YZZ      -5.5510
       ZZZ     -18.8946
    Hexadecapole Moments (Debye-Ang^3)
      XXXX   -3052.9705   XXXY     -76.8395   XXYY    -713.2260
      XYYY     -29.8679   YYYY    -932.0760   XXXZ      56.7526
      XXYZ       7.3693   XYYZ      15.1664   YYYZ      25.3390
      XXZZ    -631.4493   XYZZ     -11.5312   YYZZ    -287.7856
      XZZZ     -60.6137   YZZZ      11.4515   ZZZZ    -668.7261
 -----------------------------------------------------------------
 Calculating analytic gradient of the SCF energy
 Gradient of Coulomb and Exchange Energy
            1           2           3           4           5           6
    1  -1.1684503   0.0262577   2.7975529  -8.4921637  -3.4115987   1.6172888
    2  -1.1511908   5.3997713   3.3466130  -3.0975020   9.8561968  -8.9925209
    3   0.3982571   0.6924711   3.0414746  -3.8054042   0.3820647   1.3732628
            7           8           9          10          11          12
    1  -5.3678076  -8.1747254  -1.3262576  -4.6599776  -5.0727327  -2.8639431
    2  -7.0188376   2.5210935  -6.1345302   3.6805355  -2.0116103   3.5933516
    3  -2.0821610  -3.1149224  -1.0141394  -1.9947789  -2.6246561   2.4112800
           13          14          15          16          17          18
    1   8.3451352   2.2328091   7.3318411   8.7865908   4.1311249  -4.9210720
    2  -0.4580239   2.8169694  -0.5696431  -1.4108673   1.4034152   1.8812324
    3  -4.1450971  -5.9397817   4.0203070   2.4983209  -7.9600910  -4.0833129
           19          20          21          22          23          24
    1   0.9375648   5.1077834   0.4748234   5.0958492   6.6525088  -4.9114525
    2  -1.0109439  -1.5093545   0.9807285  -0.6024473  -0.4043613   0.3988443
    3   6.4960243   2.8058231  -6.0357763  -2.9180023  16.6224318   3.3031271
           25          26          27          28          29          30
    1  -2.5201964   1.7841578  -1.4768929   3.7345600  -4.1335795   3.3666326
    2  -7.5523963  -0.4684612  -5.0597704  -1.1250016   4.9126692   2.6393027
    3   0.2977542   4.2342129   0.4703190  -3.4576454  -0.3785697  -2.4353529
           31          32
    1  -3.7490659  -0.1725647
    2   3.0358948   2.1108443
    3  -1.5908452   4.5334061
 Gradient of SCF Energy
            1           2           3           4           5           6
    1  -0.0023363   0.0009068   0.0001036   0.0022723  -0.0004499  -0.0019154
    2   0.0020017  -0.0029702  -0.0024272   0.0008985  -0.0015030   0.0020558
    3  -0.0031209   0.0015718   0.0015384   0.0010340  -0.0001121  -0.0018190
            7           8           9          10          11          12
    1   0.0008594   0.0020477  -0.0000187   0.0003024   0.0002424   0.0009581
    2   0.0031170  -0.0012826   0.0003377  -0.0002622   0.0000722   0.0002319
    3   0.0002757   0.0008019   0.0001404   0.0000744   0.0002475  -0.0002190
           13          14          15          16          17          18
    1  -0.0026914   0.0017053   0.0008665  -0.0025282   0.0003256   0.0001191
    2   0.0003673  -0.0011512   0.0003841   0.0006605  -0.0005907  -0.0000653
    3   0.0011431   0.0013719  -0.0024261  -0.0011304   0.0029114   0.0002127
           19          20          21          22          23          24
    1   0.0000486  -0.0002942   0.0000041  -0.0003019  -0.0033887   0.0035692
    2  -0.0002877   0.0001118  -0.0000474   0.0000874  -0.0032168   0.0004392
    3  -0.0000953  -0.0002452   0.0003624   0.0002038  -0.0011748  -0.0039334
           25          26          27          28          29          30
    1   0.0002537   0.0007905   0.0004732  -0.0009171  -0.0004390  -0.0009203
    2   0.0021794   0.0000835   0.0017415   0.0001558   0.0004042  -0.0005069
    3   0.0008677   0.0014157   0.0006472   0.0001707  -0.0001985   0.0004065
           31          32
    1   0.0006805  -0.0003280
    2  -0.0006354  -0.0003829
    3   0.0002494  -0.0011721
 Max gradient component =       3.933E-03
 RMS gradient           =       1.394E-03
 Gradient time:  CPU 1.38 s  wall 2.61 s
 Geometry Optimization Parameters
   NAtoms,    NIC,     NZ,  NCons,   NDum,   NFix, NCnnct, MaxDiis
       32     227       0       0       0       0       0       0

 Cartesian Hessian Update
 Hessian Updated using BFGS Update


** GEOMETRY OPTIMIZATION IN DELOCALIZED INTERNAL COORDINATES **
   Searching for a Minimum

   Optimization Cycle:   3

                       Coordinates (Angstroms)
     ATOM                X               Y               Z
      1  C        -0.1321352003   -0.6142071317   -1.0212638163
      2  H        -0.0189503119   -1.7065155051   -1.1023506492
      3  C         1.1186891721   -0.0787909250   -0.3052293004
      4  C         3.4658588226    0.8658501444    0.9336040392
      5  C         2.1138338476   -0.9897811420    0.1242049659
      6  C         1.3053624037    1.3143629751   -0.1023333888
      7  C         2.4839244357    1.7647252104    0.5120002815
      8  C         3.2770066298   -0.5031646967    0.7434300341
      9  H         2.6222846672    2.8303344766    0.6625563289
     10  H         4.0343554541   -1.2073777842    1.0715240529
     11  H         4.3698021728    1.2293903406    1.4099894835
     12  C        -1.4246671902   -0.3700873093   -0.2411624909
     13  C        -3.8398782943   -0.0715688984    1.1636559656
     14  C        -1.4697387530   -0.5912456373    1.1439871553
     15  C        -2.5937981234   -0.0032821140   -0.9186010805
     16  C        -3.7963930489    0.1480955264   -0.2178144563
     17  C        -2.6719466854   -0.4431115239    1.8432045508
     18  H        -0.5606060925   -0.8584650743    1.6713739357
     19  H        -2.5405905851    0.1596525597   -1.9857858253
     20  H        -4.6960579641    0.4369598600   -0.7505782434
     21  H        -2.6967556053   -0.6109142573    2.9144283945
     22  H        -4.7707335329    0.0472954822    1.7071469630
     23  O        -0.3242045220   -0.0538544949   -2.3719246665
     24  H         0.5550466232   -0.0982094277   -2.8460335744
     25  C         0.2493874321    2.3336770731   -0.5033837980
     26  H        -0.1782293108    2.0489283068   -1.4647727747
     27  H         0.6822504969    3.3395773164   -0.5565881935
     28  H        -0.5677054359    2.3439088565    0.2295570283
     29  C         1.9631982923   -2.4998475733   -0.0533123677
     30  H         1.0792021357   -2.8832723971    0.4727479192
     31  H         2.8420542527   -3.0109974735    0.3550168966
     32  H         1.8767163724   -2.7826900494   -1.1112005745
   Point Group: c1    Number of degrees of freedom:    90


   Energy is   -652.856560787

 GETINT wrote B to file, NVib is           90
 Hessian Updated using BFGS Update

 85 Hessian modes will be used to form the next step
  Hessian Eigenvalues:
     0.006901    0.007910    0.008239    0.008431    0.012785    0.015867
     0.016844    0.017169    0.018346    0.022988    0.023734    0.023983
     0.024035    0.024089    0.024132    0.024153    0.024163    0.024207
     0.024228    0.024285    0.024387    0.024566    0.024780    0.057950
     0.069392    0.070740    0.071905    0.072792    0.074562    0.084696
     0.147781    0.159976    0.159989    0.159997    0.159999    0.160000
     0.160000    0.160000    0.160081    0.162402    0.192152    0.205782
     0.219968    0.220002    0.220856    0.234259    0.234933    0.248158
     0.249221    0.249989    0.250487    0.301341    0.303890    0.312614
     0.315937    0.343441    0.345471    0.345500    0.345781    0.347394
     0.348679    0.349913    0.354885    0.355621    0.355758    0.356325
     0.356461    0.356562    0.356821    0.358525    0.381923    0.384148
     0.425263    0.431618    0.433237    0.449181    0.472982    0.473841
     0.476464    0.478960    0.479789    0.484953    0.489530    0.532875
     0.554948

 Minimum Search - Taking Simple RFO Step
 Searching for Lamda that Minimizes Along All modes
 Value Taken    Lamda =  -0.00160748
 Step Taken.  Stepsize is  0.181815

                             Maximum     Tolerance    Cnvgd?
         Gradient           0.009660      0.000300      NO
         Displacement       0.065379      0.001200      NO
         Energy change     -0.000118      0.000001      NO


 New Cartesian Coordinates Obtained by Inverse Iteration

 Displacement from previous Coordinates is:  0.702379
 ----------------------------------------------------------------
             Standard Nuclear Orientation (Angstroms)
    I     Atom           X                Y                Z
 ----------------------------------------------------------------
    1      C      -0.1315543743    -0.5842633800    -1.0385826659
    2      H      -0.0182184639    -1.6672804822    -1.1800891719
    3      C       1.1159006189    -0.0682954278    -0.3150342869
    4      C       3.4464594456     0.8616125255     0.9480101837
    5      C       2.0882009736    -0.9850991693     0.1433325489
    6      C       1.3162843729     1.3205677144    -0.1311313500
    7      C       2.4868453712     1.7651153750     0.4949276590
    8      C       3.2429113830    -0.5051565557     0.7763276185
    9      H       2.6374922470     2.8307630649     0.6292255409
   10      H       3.9840854783    -1.2137369147     1.1294216759
   11      H       4.3465508593     1.2204389808     1.4342223779
   12      C      -1.4192202506    -0.3701164891    -0.2455943775
   13      C      -3.8175571033    -0.1241642089     1.1862394418
   14      C      -1.4502619518    -0.6303569759     1.1299269404
   15      C      -2.5939378322     0.0129247553    -0.9001184148
   16      C      -3.7877265875     0.1379711453    -0.1852002940
   17      C      -2.6444538367    -0.5093440066     1.8422905902
   18      H      -0.5351000859    -0.9072113906     1.6410200803
   19      H      -2.5516417279     0.2114725254    -1.9614035807
   20      H      -4.6930382776     0.4400933460    -0.6997453054
   21      H      -2.6587978599    -0.7087143755     2.9078110449
   22      H      -4.7434953577    -0.0262285576     1.7412718876
   23      O      -0.3251531305     0.0385661169    -2.3562468438
   24      H       0.5571872182     0.0055351319    -2.8163339053
   25      C       0.2799334293     2.3389416459    -0.5774290930
   26      H      -0.1476738344     2.0301980784    -1.5315182713
   27      H       0.7291962614     3.3335036008    -0.6611311554
   28      H      -0.5395751982     2.3860168311     0.1497636218
   29      C       1.9216018367    -2.4936709901    -0.0109815678
   30      H       1.0222263939    -2.8548810912     0.5019034250
   31      H       2.7840395015    -3.0071746736     0.4253205634
   32      H       1.8550730362    -2.7926514355    -1.0643821223
 ----------------------------------------------------------------
 Molecular Point Group                 C1    NOp =  1
 Largest Abelian Subgroup              C1    NOp =  1
 Nuclear Repulsion Energy =  1054.6919119262 hartrees
 There are       57 alpha and       57 beta electrons
 Applying Cartesian multipole field
    Component          Value
    ---------          -----
     (2,0,0)        1.00000E-11
     (0,2,0)        2.00000E-11
     (0,0,2)       -3.00000E-11
 Nucleus-field energy     =     0.0000000202 hartrees
 Requested basis set is 3-21G
 There are 80 shells and 176 basis functions
 A cutoff of  1.0D-11 yielded   2366 shell pairs
 There are     12941 function pairs
 Smallest overlap matrix eigenvalue = 1.32E-03
 Guess MOs from SCF MO coefficient file
Reading MOs from coefficient file
Reading MOs from coefficient file
 A restricted hybrid HF-DFT SCF calculation will be
 performed using Pulay DIIS extrapolation
 Exchange:     0.2000 Hartree-Fock + 0.0800 Slater + 0.7200 Becke88
 Correlation:  0.8100 LYP + 0.1900 VWN1RPA
 Using SG-1 standard quadrature grid
 SCF converges when DIIS error is below 1.0E-08
Geometry optimization detected.  Setting ReadMinima to 0
Setting SaveMinima to 0
 ---------------------------------------
  Cycle       Energy         DIIS Error
 ---------------------------------------
    1    -652.8943942861      1.36E-03
    2    -652.8573307486      1.58E-04
    3    -652.8573134715      2.26E-04
    4    -652.8574667794      2.74E-05
    5    -652.8574683610      1.84E-05
    6    -652.8574697227      6.07E-06
    7    -652.8574698781      1.69E-06
    8    -652.8574698892      4.95E-07
    9    -652.8574698914      1.99E-07
   10    -652.8574698914      3.83E-08
   11    -652.8574698901      1.52E-08
   12    -652.8574698908      4.86E-09 Convergence criterion met
 ---------------------------------------
 SCF time:  CPU 5.28 s  wall 16.76 s
 SCF   energy in the final basis set = -652.8574698908
 Total energy in the final basis set = -652.8574698908
 Analysis of SCF Wavefunction
 
 --------------------------------------------------------------
                    Orbital Energies (a.u.)
 --------------------------------------------------------------
 
 Alpha MOs
 -- Occupied --
-19.040 -10.184 -10.142 -10.136 -10.134 -10.132 -10.127 -10.125
-10.123 -10.123 -10.121 -10.121 -10.121 -10.120 -10.115 -10.099
 -1.015  -0.866  -0.853  -0.785  -0.780  -0.749  -0.740  -0.704
 -0.680  -0.664  -0.608  -0.595  -0.578  -0.569  -0.521  -0.505
 -0.501  -0.473  -0.449  -0.442  -0.440  -0.432  -0.420  -0.417
 -0.415  -0.407  -0.404  -0.403  -0.372  -0.360  -0.354  -0.350
 -0.343  -0.340  -0.336  -0.316  -0.268  -0.245  -0.242  -0.238
 -0.235
 -- Virtual --
 -0.007   0.006   0.009   0.013   0.095   0.113   0.120   0.128
  0.144   0.157   0.164   0.165   0.174   0.187   0.190   0.197
  0.205   0.212   0.219   0.224   0.225   0.236   0.246   0.261
  0.272   0.280   0.287   0.333   0.338   0.359   0.366   0.371
  0.388   0.396   0.415   0.553   0.579   0.584   0.588   0.648
  0.677   0.687   0.693   0.702   0.706   0.714   0.719   0.726
  0.732   0.746   0.756   0.758   0.773   0.784   0.795   0.807
  0.808   0.816   0.829   0.841   0.852   0.859   0.868   0.874
  0.893   0.909   0.918   0.921   0.943   0.964   0.987   0.989
  0.991   0.996   1.020   1.022   1.045   1.071   1.073   1.083
  1.113   1.119   1.122   1.139   1.150   1.169   1.193   1.227
  1.239   1.304   1.305   1.344   1.355   1.411   1.417   1.449
  1.460   1.505   1.522   1.538   1.542   1.559   1.585   1.601
  1.670   1.678   1.724   1.781   1.853   1.888   1.924   1.973
  1.987   1.997   2.080   2.254   2.482   2.492   3.194
 --------------------------------------------------------------
 
          Ground-State Mulliken Net Atomic Charges

     Atom                 Charge (a.u.)
  ----------------------------------------
      1 C                    -0.079548
      2 H                     0.221336
      3 C                    -0.031062
      4 C                    -0.180586
      5 C                     0.008635
      6 C                     0.022612
      7 C                    -0.186615
      8 C                    -0.186037
      9 H                     0.180020
     10 H                     0.176994
     11 H                     0.184227
     12 C                     0.018722
     13 C                    -0.187448
     14 C                    -0.192476
     15 C                    -0.185687
     16 C                    -0.185799
     17 C                    -0.185136
     18 H                     0.195691
     19 H                     0.209109
     20 H                     0.183354
     21 H                     0.183446
     22 H                     0.182343
     23 O                    -0.533203
     24 H                     0.348432
     25 C                    -0.621329
     26 H                     0.226804
     27 H                     0.181615
     28 H                     0.224534
     29 C                    -0.608317
     30 H                     0.212015
     31 H                     0.200525
     32 H                     0.202829
  ----------------------------------------
  Sum of atomic charges =     0.000000

 -----------------------------------------------------------------
                    Cartesian Multipole Moments
 -----------------------------------------------------------------
    Charge (ESU x 10^10)
                 0.0000
    Dipole Moment (Debye)
         X       1.4301      Y      -0.7805      Z       0.0346
       Tot       1.6295
    Quadrupole Moments (Debye-Ang)
        XX     -89.1386     XY      -2.4782     YY     -92.3820
        XZ      -1.4617     YZ      -0.0390     ZZ     -91.9958
    Octopole Moments (Debye-Ang^2)
       XXX     -12.5407    XXY       6.7638    XYY      21.4104
       YYY       2.8919    XXZ      13.2093    XYZ       4.8515
       YYZ      -4.5154    XZZ      -0.5927    YZZ      -5.8310
       ZZZ     -18.7854
    Hexadecapole Moments (Debye-Ang^3)
      XXXX   -3021.4832   XXXY     -85.7478   XXYY    -706.6496
      XYYY     -42.5232   YYYY    -937.4300   XXXZ      55.3576
      XXYZ      10.1749   XYYZ      14.8368   YYYZ      42.0610
      XXZZ    -624.7355   XYZZ     -13.7217   YYZZ    -287.7518
      XZZZ     -59.1685   YZZZ      26.3594   ZZZZ    -676.0592
 -----------------------------------------------------------------
 Calculating analytic gradient of the SCF energy
 Gradient of Coulomb and Exchange Energy
            1           2           3           4           5           6
    1  -1.2300198   0.0200947   2.7942190  -8.4744176  -3.3970482   1.4870699
    2  -1.1788582   5.4388361   3.2590983  -3.0583383   9.9375586  -9.0532907
    3   0.4025471   1.0876628   3.0449931  -3.8914780   0.3226492   1.5097739
            7           8           9          10          11          12
    1  -5.4732636  -8.0992272  -1.3931379  -4.5837570  -5.0620699  -2.8024760
    2  -7.0085021   2.5567780  -6.1443450   3.7150635  -1.9901655   3.4669092
    3  -2.0600831  -3.2944640  -0.9296493  -2.1427100  -2.6821310   2.5747785
           13          14          15          16          17          18
    1   8.3171491   2.2087526   7.4412245   8.8140541   4.0710743  -4.9677179
    2  -0.3027479   2.8837342  -0.6214203  -1.4698571   1.6147660   1.9538232
    3  -4.2154540  -5.8514902   3.9267058   2.3499998  -7.9263869  -3.9830601
           19          20          21          22          23          24
    1   1.0024003   5.1466684   0.4188512   5.0769667   6.9817293  -5.0008274
    2  -1.2239915  -1.5802097   1.1571146  -0.4911832  -0.7681157   0.3471277
    3   6.4664586   2.7085025  -6.0167890  -2.9849468  16.5445487   3.1667697
           25          26          27          28          29          30
    1  -2.5089408   1.7158725  -1.5630721   3.7279213  -4.1373256   3.4324689
    2  -7.4003743  -0.5307919  -4.9911453  -1.2874864   4.9785949   2.5597620
    3   0.5242291   4.1366666   0.6558134  -3.4172745  -0.4127017  -2.4003082
           31          32
    1  -3.6914828  -0.2717330
    2   3.0494878   2.1821690
    3  -1.7241038   4.5109319
 Gradient of SCF Energy
            1           2           3           4           5           6
    1  -0.0003136   0.0003028   0.0003619   0.0003599  -0.0000977  -0.0002437
    2   0.0009275  -0.0005996  -0.0005772  -0.0000499  -0.0000792   0.0005556
    3  -0.0031600   0.0003567   0.0010007  -0.0000370  -0.0003511  -0.0000715
            7           8           9          10          11          12
    1   0.0002591   0.0002296  -0.0000549  -0.0000161  -0.0000145  -0.0006253
    2   0.0006231  -0.0001859  -0.0000300  -0.0000498  -0.0000359   0.0005445
    3  -0.0001696   0.0002352   0.0000582  -0.0000340   0.0000625  -0.0001554
           13          14          15          16          17          18
    1  -0.0006334   0.0002709   0.0000855  -0.0005298   0.0003021   0.0000758
    2   0.0000745  -0.0003006   0.0002901   0.0000251  -0.0001795  -0.0002010
    3  -0.0000915   0.0000272  -0.0002837   0.0001880   0.0003451   0.0000153
           19          20          21          22          23          24
    1   0.0000007  -0.0000192   0.0000164   0.0000159  -0.0010776   0.0011112
    2  -0.0001963   0.0000059  -0.0000034   0.0000464  -0.0012414  -0.0000547
    3   0.0001825  -0.0000112  -0.0000116   0.0000323   0.0017267   0.0000067
           25          26          27          28          29          30
    1   0.0003301   0.0001254   0.0001608  -0.0002215  -0.0000627  -0.0001957
    2   0.0002588   0.0000242   0.0002749   0.0000409   0.0002419  -0.0000430
    3   0.0004906  -0.0000191   0.0001635  -0.0003465  -0.0001404   0.0001704
           31          32
    1   0.0001969  -0.0000993
    2  -0.0001124   0.0000065
    3   0.0000660  -0.0002450
 Max gradient component =       3.160E-03
 RMS gradient           =       5.037E-04
 Gradient time:  CPU 1.33 s  wall 3.19 s
 Geometry Optimization Parameters
   NAtoms,    NIC,     NZ,  NCons,   NDum,   NFix, NCnnct, MaxDiis
       32     227       0       0       0       0       0       0

 Cartesian Hessian Update
 Hessian Updated using BFGS Update


** GEOMETRY OPTIMIZATION IN DELOCALIZED INTERNAL COORDINATES **
   Searching for a Minimum

   Optimization Cycle:   4

                       Coordinates (Angstroms)
     ATOM                X               Y               Z
      1  C        -0.1315543743   -0.5842633800   -1.0385826659
      2  H        -0.0182184639   -1.6672804822   -1.1800891719
      3  C         1.1159006189   -0.0682954278   -0.3150342869
      4  C         3.4464594456    0.8616125255    0.9480101837
      5  C         2.0882009736   -0.9850991693    0.1433325489
      6  C         1.3162843729    1.3205677144   -0.1311313500
      7  C         2.4868453712    1.7651153750    0.4949276590
      8  C         3.2429113830   -0.5051565557    0.7763276185
      9  H         2.6374922470    2.8307630649    0.6292255409
     10  H         3.9840854783   -1.2137369147    1.1294216759
     11  H         4.3465508593    1.2204389808    1.4342223779
     12  C        -1.4192202506   -0.3701164891   -0.2455943775
     13  C        -3.8175571033   -0.1241642089    1.1862394418
     14  C        -1.4502619518   -0.6303569759    1.1299269404
     15  C        -2.5939378322    0.0129247553   -0.9001184148
     16  C        -3.7877265875    0.1379711453   -0.1852002940
     17  C        -2.6444538367   -0.5093440066    1.8422905902
     18  H        -0.5351000859   -0.9072113906    1.6410200803
     19  H        -2.5516417279    0.2114725254   -1.9614035807
     20  H        -4.6930382776    0.4400933460   -0.6997453054
     21  H        -2.6587978599   -0.7087143755    2.9078110449
     22  H        -4.7434953577   -0.0262285576    1.7412718876
     23  O        -0.3251531305    0.0385661169   -2.3562468438
     24  H         0.5571872182    0.0055351319   -2.8163339053
     25  C         0.2799334293    2.3389416459   -0.5774290930
     26  H        -0.1476738344    2.0301980784   -1.5315182713
     27  H         0.7291962614    3.3335036008   -0.6611311554
     28  H        -0.5395751982    2.3860168311    0.1497636218
     29  C         1.9216018367   -2.4936709901   -0.0109815678
     30  H         1.0222263939   -2.8548810912    0.5019034250
     31  H         2.7840395015   -3.0071746736    0.4253205634
     32  H         1.8550730362   -2.7926514355   -1.0643821223
   Point Group: c1    Number of degrees of freedom:    90


   Energy is   -652.857469891

 GETINT wrote B to file, NVib is           90
 Hessian Updated using BFGS Update

 86 Hessian modes will be used to form the next step
  Hessian Eigenvalues:
     0.006749    0.007890    0.008130    0.009154    0.012815    0.015859
     0.016833    0.017104    0.018763    0.023075    0.023729    0.023997
     0.024041    0.024124    0.024131    0.024162    0.024199    0.024207
     0.024229    0.024282    0.024474    0.024763    0.025092    0.056196
     0.069518    0.070747    0.072035    0.072796    0.074700    0.084597
     0.148258    0.159648    0.159976    0.159989    0.159997    0.159999
     0.160000    0.160000    0.160000    0.160078    0.163525    0.193955
     0.205802    0.219968    0.220009    0.220858    0.234316    0.234933
     0.248200    0.249202    0.249983    0.252403    0.300016    0.303788
     0.313697    0.315795    0.341953    0.344356    0.345489    0.345766
     0.345938    0.348356    0.348809    0.354843    0.355620    0.355753
     0.356317    0.356458    0.356557    0.356814    0.358521    0.372145
     0.397947    0.426069    0.431627    0.433347    0.446751    0.472932
     0.473233    0.475182    0.478092    0.479473    0.482012    0.485622
     0.490788    0.534502

 Minimum Search - Taking Simple RFO Step
 Searching for Lamda that Minimizes Along All modes
 Value Taken    Lamda =  -0.00017859
 Step Taken.  Stepsize is  0.095661

                             Maximum     Tolerance    Cnvgd?
         Gradient           0.002702      0.000300      NO
         Displacement       0.040257      0.001200      NO
         Energy change     -0.000909      0.000001      NO


 New Cartesian Coordinates Obtained by Inverse Iteration

 Displacement from previous Coordinates is:  0.358055
 ----------------------------------------------------------------
             Standard Nuclear Orientation (Angstroms)
    I     Atom           X                Y                Z
 ----------------------------------------------------------------
    1      C      -0.1282644976    -0.5935955345    -1.0419377801
    2      H      -0.0219767906    -1.6749371004    -1.1931109670
    3      C       1.1184393964    -0.0817069560    -0.3204996763
    4      C       3.4355772656     0.8591906986     0.9544326960
    5      C       2.0961960448    -0.9942667460     0.1347005720
    6      C       1.3038402546     1.3054181173    -0.1237490168
    7      C       2.4683587149     1.7566874677     0.5071409821
    8      C       3.2450250071    -0.5079468681     0.7726828604
    9      H       2.6078929023     2.8225940552     0.6511739430
   10      H       3.9919850067    -1.2118748092     1.1228094369
   11      H       4.3317126680     1.2229061117     1.4442684987
   12      C      -1.4121851187    -0.3711826361    -0.2484521077
   13      C      -3.8061363289    -0.0907020811     1.1808933992
   14      C      -1.4413159176    -0.6037166197     1.1316619292
   15      C      -2.5854751530     0.0056977143    -0.9082668843
   16      C      -3.7770915207     0.1477028824    -0.1946467225
   17      C      -2.6341698348    -0.4665545430     1.8426963060
   18      H      -0.5254168181    -0.8684773671     1.6473365841
   19      H      -2.5427381694     0.1902184267    -1.9723682528
   20      H      -4.6816270331     0.4455038547    -0.7129604780
   21      H      -2.6479084642    -0.6448882722     2.9119477189
   22      H      -4.7312763762     0.0198615428     1.7348432079
   23      O      -0.3227229795     0.0420820661    -2.3570113165
   24      H       0.5531781405     0.0008700498    -2.8269961550
   25      C       0.2480985905     2.3109515614    -0.5534660212
   26      H      -0.1967839193     1.9942993688    -1.4969530427
   27      H       0.6836016972     3.3099828786    -0.6489477521
   28      H      -0.5545906923     2.3497024947     0.1928794552
   29      C       1.9435535643    -2.5036232936    -0.0282751748
   30      H       1.0428091728    -2.8749852682     0.4739205103
   31      H       2.8059318972    -3.0115798034     0.4135873761
   32      H       1.8900618460    -2.7982566790    -1.0832413340
 ----------------------------------------------------------------
 Molecular Point Group                 C1    NOp =  1
 Largest Abelian Subgroup              C1    NOp =  1
 Nuclear Repulsion Energy =  1056.1880425038 hartrees
 There are       57 alpha and       57 beta electrons
 Applying Cartesian multipole field
    Component          Value
    ---------          -----
     (2,0,0)        1.00000E-11
     (0,2,0)        2.00000E-11
     (0,0,2)       -3.00000E-11
 Nucleus-field energy     =     0.0000000200 hartrees
 Requested basis set is 3-21G
 There are 80 shells and 176 basis functions
 A cutoff of  1.0D-11 yielded   2365 shell pairs
 There are     12967 function pairs
 Smallest overlap matrix eigenvalue = 1.31E-03
 Guess MOs from SCF MO coefficient file
Reading MOs from coefficient file
Reading MOs from coefficient file
 A restricted hybrid HF-DFT SCF calculation will be
 performed using Pulay DIIS extrapolation
 Exchange:     0.2000 Hartree-Fock + 0.0800 Slater + 0.7200 Becke88
 Correlation:  0.8100 LYP + 0.1900 VWN1RPA
 Using SG-1 standard quadrature grid
 SCF converges when DIIS error is below 1.0E-08
Geometry optimization detected.  Setting ReadMinima to 0
Setting SaveMinima to 0
 ---------------------------------------
  Cycle       Energy         DIIS Error
 ---------------------------------------
    1    -652.8631129740      6.51E-04
    2    -652.8574933164      5.41E-05
    3    -652.8574995678      6.34E-05
    4    -652.8575136582      1.76E-05
    5    -652.8575146659      8.66E-06
    6    -652.8575149867      2.21E-06
    7    -652.8575150040      6.83E-07
    8    -652.8575150064      1.71E-07
    9    -652.8575150081      6.15E-08
   10    -652.8575150072      2.12E-08
   11    -652.8575150073      7.48E-09 Convergence criterion met
 ---------------------------------------
 SCF time:  CPU 4.90 s  wall 14.57 s
 SCF   energy in the final basis set = -652.8575150073
 Total energy in the final basis set = -652.8575150073
 Analysis of SCF Wavefunction
 
 --------------------------------------------------------------
                    Orbital Energies (a.u.)
 --------------------------------------------------------------
 
 Alpha MOs
 -- Occupied --
-19.040 -10.184 -10.141 -10.136 -10.133 -10.132 -10.126 -10.125
-10.123 -10.123 -10.121 -10.121 -10.120 -10.120 -10.115 -10.097
 -1.014  -0.866  -0.853  -0.784  -0.781  -0.749  -0.740  -0.704
 -0.680  -0.664  -0.608  -0.595  -0.578  -0.569  -0.521  -0.505
 -0.502  -0.473  -0.449  -0.442  -0.440  -0.432  -0.420  -0.417
 -0.415  -0.406  -0.404  -0.403  -0.371  -0.360  -0.354  -0.350
 -0.343  -0.340  -0.336  -0.316  -0.268  -0.245  -0.242  -0.238
 -0.235
 -- Virtual --
 -0.006   0.006   0.009   0.013   0.096   0.113   0.121   0.128
  0.145   0.158   0.164   0.166   0.174   0.187   0.191   0.198
  0.205   0.213   0.219   0.224   0.224   0.237   0.246   0.261
  0.272   0.281   0.287   0.334   0.338   0.359   0.366   0.371
  0.390   0.396   0.415   0.553   0.579   0.584   0.589   0.649
  0.677   0.686   0.693   0.702   0.705   0.714   0.720   0.727
  0.732   0.746   0.757   0.758   0.773   0.785   0.795   0.807
  0.809   0.816   0.829   0.841   0.852   0.859   0.868   0.873
  0.893   0.910   0.918   0.921   0.944   0.962   0.986   0.990
  0.992   0.998   1.020   1.024   1.046   1.072   1.074   1.082
  1.113   1.119   1.123   1.139   1.152   1.169   1.196   1.225
  1.239   1.305   1.305   1.346   1.355   1.412   1.418   1.449
  1.460   1.506   1.520   1.539   1.544   1.559   1.589   1.602
  1.672   1.678   1.727   1.781   1.854   1.887   1.925   1.976
  1.992   1.997   2.087   2.252   2.484   2.493   3.192
 --------------------------------------------------------------
 
          Ground-State Mulliken Net Atomic Charges

     Atom                 Charge (a.u.)
  ----------------------------------------
      1 C                    -0.083108
      2 H                     0.221046
      3 C                    -0.030595
      4 C                    -0.180597
      5 C                     0.008262
      6 C                     0.023798
      7 C                    -0.187116
      8 C                    -0.186210
      9 H                     0.179889
     10 H                     0.176828
     11 H                     0.184079
     12 C                     0.018660
     13 C                    -0.187294
     14 C                    -0.192187
     15 C                    -0.184574
     16 C                    -0.185878
     17 C                    -0.185450
     18 H                     0.195986
     19 H                     0.209131
     20 H                     0.183270
     21 H                     0.183483
     22 H                     0.182274
     23 O                    -0.531133
     24 H                     0.348373
     25 C                    -0.623330
     26 H                     0.229614
[...]

 Mode:                76                     77                     78
 Frequency:      3049.66                3054.60                3097.94
 Force Cnst:      5.7512                 5.7175                 6.2065
 Red. Mass:       1.0495                 1.0400                 1.0976
 IR Active:          YES                    YES                    YES
 IR Intens:       44.717                 11.785                 12.557
 Raman Active:       YES                    YES                    YES
               X      Y      Z        X      Y      Z        X      Y      Z
 C          0.002 -0.040 -0.022    0.000 -0.006 -0.003    0.000  0.000  0.000
 H         -0.041  0.490  0.254   -0.006  0.075  0.038    0.001 -0.001 -0.002
 C          0.000  0.000  0.000    0.000 -0.001  0.000    0.000  0.000  0.000
 C          0.000  0.000  0.000    0.000  0.000  0.000    0.000  0.000  0.000
 C          0.000  0.000  0.000    0.000  0.000  0.000    0.000  0.000 -0.001
 C          0.000  0.000  0.000    0.000  0.001  0.000    0.000  0.000  0.000
 C          0.000  0.000  0.000    0.000 -0.001  0.000    0.000  0.000  0.000
 C          0.000  0.001  0.000    0.000  0.000  0.000    0.000  0.000  0.000
 H          0.000  0.000  0.000    0.001  0.011  0.004    0.000  0.000  0.000
 H          0.005 -0.006  0.001    0.002 -0.002  0.000   -0.002  0.003 -0.001
 H          0.001  0.000  0.000    0.000  0.000  0.000    0.000  0.000  0.000
 C          0.001  0.000 -0.001    0.000  0.000  0.000    0.000  0.000  0.000
 C          0.000  0.000  0.000    0.000  0.000  0.000    0.000  0.000  0.000
 C          0.000  0.000  0.000    0.000  0.000  0.000    0.001  0.000  0.000
 C          0.000  0.000  0.000    0.000  0.000  0.000    0.000  0.000  0.000
 C          0.000  0.000  0.000    0.000  0.000  0.000    0.000  0.000  0.000
 C          0.000  0.000  0.000    0.000  0.000  0.000    0.000  0.000  0.000
 H          0.005 -0.002  0.002    0.000  0.000  0.000   -0.006  0.003 -0.003
 H          0.000  0.001 -0.002   -0.001  0.000  0.000    0.000  0.000  0.000
 H          0.000  0.000  0.000    0.000  0.000  0.000    0.000  0.000  0.000
 H          0.000  0.000  0.000    0.000  0.000  0.000    0.000  0.000  0.000
 H         -0.001  0.000  0.000    0.000  0.000  0.000    0.000  0.000  0.000
 O          0.000  0.000  0.001    0.000  0.000  0.000    0.000  0.000  0.000
 H          0.003 -0.001 -0.002   -0.001 -0.001 -0.001    0.000  0.000  0.000
 C          0.003 -0.003 -0.002   -0.035  0.029  0.028    0.000  0.000  0.000
 H         -0.012  0.000 -0.028    0.121  0.003  0.283   -0.001  0.000 -0.001
 H          0.025  0.046  0.008   -0.251 -0.461 -0.079    0.002  0.004  0.001
 H         -0.050 -0.011  0.049    0.553  0.116 -0.539    0.001  0.000 -0.001
 C         -0.010 -0.030 -0.027    0.000 -0.002 -0.002    0.037  0.035 -0.075
 H          0.380  0.180 -0.163    0.023  0.011 -0.010   -0.629 -0.299  0.232
 H         -0.282  0.211 -0.096   -0.019  0.014 -0.006    0.135 -0.085  0.015
 H          0.030 -0.044  0.584    0.002 -0.003  0.038    0.050 -0.033  0.650
 TransDip  -0.032 -0.180 -0.111   -0.042  0.086  0.053    0.043  0.049 -0.093

 Mode:                79                     80                     81
 Frequency:      3109.86                3123.17                3174.41
 Force Cnst:      6.2439                 6.3069                 6.5030
 Red. Mass:       1.0958                 1.0974                 1.0953
 IR Active:          YES                    YES                    YES
 IR Intens:       25.687                 19.041                  1.572
 Raman Active:       YES                    YES                    YES
               X      Y      Z        X      Y      Z        X      Y      Z
 C          0.000  0.001  0.000    0.000 -0.004 -0.002    0.000  0.000  0.001
 H          0.001 -0.008 -0.003   -0.003  0.044  0.024   -0.001  0.004 -0.001
 C          0.000  0.000  0.000    0.000  0.000  0.000    0.000  0.000  0.000
 C          0.000  0.000  0.000    0.000  0.000  0.000   -0.001  0.000 -0.001
 C          0.000  0.000  0.000   -0.002  0.000 -0.001    0.000  0.000  0.000
 C         -0.001  0.000  0.000    0.000  0.000  0.000   -0.001  0.000 -0.001
 C          0.000  0.002  0.001    0.000  0.000  0.000    0.001  0.004  0.002
 C          0.000  0.000  0.000    0.002 -0.003  0.000    0.000  0.000  0.000
 H         -0.004 -0.025 -0.010    0.000  0.000  0.000   -0.009 -0.047 -0.022
 H          0.000  0.000  0.000   -0.023  0.027 -0.003    0.000  0.001  0.000
 H          0.003  0.000  0.002    0.004  0.001  0.003    0.011  0.002  0.007
 C          0.000  0.000  0.000    0.000  0.000  0.000    0.000  0.000  0.000
 C          0.000  0.000  0.000    0.000  0.000  0.000    0.000  0.000  0.000
 C          0.000  0.000  0.000   -0.001  0.000  0.000    0.000  0.000  0.000
 C          0.000  0.000  0.000    0.000  0.000  0.000    0.000  0.000  0.000
 C          0.000  0.000  0.000    0.000  0.000  0.000    0.000  0.000  0.000
 C          0.000  0.000  0.000    0.000  0.000  0.000    0.000  0.000  0.000
 H         -0.001  0.000  0.000    0.006 -0.003  0.003    0.003 -0.001  0.001
 H          0.000  0.000  0.000    0.000  0.000  0.000   -0.001  0.000 -0.001
 H          0.001 -0.001  0.001    0.001  0.000  0.000    0.001  0.000  0.000
 H          0.000  0.001 -0.001    0.000  0.001 -0.002    0.000  0.001 -0.002
 H          0.001  0.000  0.000    0.000  0.000  0.000   -0.002  0.000  0.001
 O          0.000  0.000  0.000    0.000  0.000  0.000    0.000 -0.001 -0.001
 H          0.000 -0.001  0.000    0.001  0.000 -0.001   -0.001  0.000  0.000
 C         -0.054 -0.061  0.036   -0.001 -0.001  0.000   -0.038 -0.020 -0.078
 H         -0.108 -0.016 -0.172    0.000  0.000  0.000    0.406 -0.010  0.838
 H          0.351  0.676  0.145    0.004  0.008  0.002    0.151  0.286  0.046
 H          0.415  0.065 -0.415    0.003  0.000 -0.003   -0.100 -0.025  0.068
 C          0.001  0.000  0.001   -0.081  0.032 -0.024    0.000  0.000  0.000
 H          0.000  0.000  0.000    0.305  0.169 -0.141   -0.001 -0.001  0.001
 H         -0.007  0.005 -0.002    0.685 -0.535  0.220   -0.002  0.001 -0.001
 H          0.000  0.000 -0.005   -0.014 -0.005  0.209    0.000  0.000 -0.001
 TransDip  -0.082 -0.139  0.016   -0.123  0.064 -0.018    0.003  0.018  0.036

 Mode:                82                     83                     84
 Frequency:      3185.28                3185.98                3191.82
 Force Cnst:      6.4888                 6.4863                 6.5391
 Red. Mass:       1.0855                 1.0846                 1.0894
 IR Active:          YES                    YES                    YES
 IR Intens:        0.398                  0.364                 18.530
 Raman Active:       YES                    YES                    YES
               X      Y      Z        X      Y      Z        X      Y      Z
 C          0.000  0.000  0.000    0.000  0.000  0.000    0.000  0.000  0.000
 H          0.000 -0.002 -0.001    0.000  0.002  0.001    0.000  0.002  0.001
 C          0.000  0.000  0.000    0.000  0.000  0.000    0.000  0.001  0.000
 C          0.036  0.006  0.023    0.003  0.001  0.002   -0.005  0.002 -0.002
 C          0.001  0.001  0.001    0.000  0.000  0.000   -0.001 -0.001 -0.001
 C          0.001 -0.001  0.000    0.000  0.000  0.000    0.002 -0.001  0.001
 C         -0.010 -0.049 -0.024   -0.001 -0.004 -0.002   -0.010 -0.050 -0.024
 C         -0.030  0.033 -0.005   -0.002  0.003  0.000    0.043 -0.048  0.007
 H          0.114  0.579  0.281    0.009  0.047  0.023    0.114  0.578  0.280
 H          0.351 -0.396  0.052    0.029 -0.032  0.004   -0.494  0.559 -0.072
 H         -0.440 -0.076 -0.273   -0.038 -0.006 -0.023    0.049  0.003  0.028
 C          0.000  0.000  0.000    0.000  0.000  0.000    0.000  0.000  0.000
 C          0.003  0.000 -0.002   -0.042 -0.003  0.027    0.000  0.000  0.000
 C         -0.002  0.001 -0.001    0.020 -0.010  0.010    0.000  0.000  0.000
 C          0.000  0.000  0.000   -0.001  0.002 -0.004    0.000  0.000  0.000
 C         -0.003  0.001 -0.001    0.031 -0.015  0.013    0.000  0.000  0.000
 C          0.000 -0.002  0.004    0.000  0.022 -0.044    0.000  0.000  0.000
 H          0.023 -0.011  0.010   -0.247  0.114 -0.110    0.001 -0.001  0.001
 H          0.000  0.002 -0.004    0.000 -0.028  0.052    0.000  0.000  0.000
 H          0.030 -0.015  0.013   -0.368  0.181 -0.158   -0.001  0.001  0.000
 H          0.000  0.023 -0.045   -0.002 -0.268  0.526    0.000  0.000  0.000
 H         -0.039 -0.002  0.024    0.504  0.030 -0.316    0.001  0.000  0.000
 O          0.000  0.000  0.000    0.000  0.000  0.000    0.000  0.000  0.000
 H          0.001  0.000  0.000    0.000  0.000  0.000    0.000  0.000  0.000
 C         -0.002 -0.002 -0.003    0.000  0.000 -0.001   -0.002 -0.002 -0.002
 H          0.014  0.000  0.029    0.003  0.000  0.005    0.011  0.001  0.023
 H          0.014  0.030  0.005    0.002  0.004  0.001    0.011  0.026  0.004
 H         -0.002  0.000 -0.001    0.000  0.000  0.000    0.000  0.000 -0.002
 C         -0.001  0.001 -0.001    0.000  0.000  0.000    0.002 -0.001  0.001
 H          0.003  0.001 -0.002    0.003  0.002 -0.001   -0.005 -0.002  0.003
 H          0.015 -0.014  0.004    0.003 -0.003  0.001   -0.019  0.018 -0.005
 H          0.000 -0.001  0.003    0.000  0.000  0.000    0.000  0.001 -0.005
 TransDip  -0.017 -0.010 -0.001    0.019 -0.003  0.001    0.038 -0.130 -0.024

 Mode:                85                     86                     87
 Frequency:      3194.82                3205.36                3214.56
 Force Cnst:      6.5391                 6.6070                 6.6730
 Red. Mass:       1.0874                 1.0914                 1.0960
 IR Active:          YES                    YES                    YES
 IR Intens:        7.832                 24.082                 23.501
 Raman Active:       YES                    YES                    YES
               X      Y      Z        X      Y      Z        X      Y      Z
 C          0.000  0.000  0.000    0.000  0.000  0.000    0.000  0.000  0.000
 H         -0.001  0.002  0.002    0.001 -0.003 -0.003    0.000 -0.001 -0.001
 C          0.000  0.000  0.000    0.000  0.000  0.000    0.000  0.000  0.000
 C          0.000  0.000  0.000    0.000  0.000  0.000   -0.063 -0.011 -0.039
 C          0.000  0.000  0.000    0.000  0.000  0.000    0.001  0.001  0.001
 C          0.000  0.000  0.000    0.000  0.000  0.000    0.002  0.000  0.001
 C          0.000  0.000  0.000    0.000  0.000  0.000   -0.004 -0.030 -0.013
 C          0.000  0.000  0.000    0.000  0.000  0.000   -0.022  0.027 -0.002
 H          0.001  0.003  0.001    0.000  0.000  0.000    0.060  0.323  0.155
 H          0.000  0.000  0.000    0.001 -0.001  0.000    0.248 -0.285  0.034
 H         -0.002  0.000 -0.001    0.005  0.001  0.003    0.710  0.121  0.441
 C          0.001  0.000 -0.001   -0.001 -0.001  0.002    0.000  0.000  0.000
 C          0.018  0.000 -0.009   -0.034 -0.003  0.023   -0.002  0.000  0.001
 C          0.033 -0.016  0.016   -0.051  0.024 -0.022    0.002 -0.001  0.001
 C          0.001 -0.003  0.006    0.002 -0.003  0.006    0.000  0.000  0.000
 C         -0.048  0.023 -0.020   -0.034  0.018 -0.016   -0.001  0.001 -0.001
 C         -0.001  0.020 -0.039    0.003  0.008 -0.018    0.000 -0.001  0.003
 H         -0.394  0.182 -0.174    0.589 -0.271  0.257   -0.025  0.012 -0.011
 H          0.001  0.045 -0.085   -0.001  0.040 -0.074    0.000  0.002 -0.004
 H          0.558 -0.275  0.240    0.393 -0.195  0.172    0.013 -0.006  0.006
 H          0.000 -0.233  0.457   -0.005 -0.102  0.204    0.000  0.014 -0.028
 H         -0.204 -0.010  0.124    0.400  0.025 -0.254    0.027  0.002 -0.017
 O          0.000  0.000  0.000    0.000  0.000  0.000    0.000  0.000  0.000
 H          0.001  0.000 -0.001   -0.001  0.000  0.000    0.001  0.000  0.000
 C          0.000  0.000  0.000    0.000  0.000  0.000   -0.001 -0.001 -0.001
 H          0.001  0.000  0.002   -0.001  0.000 -0.001    0.002  0.001  0.005
 H          0.000  0.000  0.000   -0.001 -0.001  0.000    0.004  0.011  0.002
 H         -0.001  0.000  0.001    0.000  0.000 -0.001   -0.001  0.000  0.000
 C          0.000  0.000  0.000    0.001  0.000  0.000   -0.001  0.000  0.000
 H          0.004  0.002 -0.002   -0.006 -0.003  0.002    0.000 -0.001 -0.001
 H          0.002 -0.001  0.000   -0.002  0.002 -0.001    0.007 -0.007  0.002
 H          0.000  0.000 -0.001    0.000  0.000  0.001    0.000 -0.001  0.000
 TransDip  -0.009  0.042 -0.079   -0.145  0.052 -0.029   -0.140 -0.020 -0.063

 Mode:                88                     89                     90
 Frequency:      3216.24                3249.01                3493.37
 Force Cnst:      6.6848                 6.7844                 7.6643
 Red. Mass:       1.0968                 1.0908                 1.0659
 IR Active:          YES                    YES                    YES
 IR Intens:       15.322                  1.598                  2.570
 Raman Active:       YES                    YES                    YES
               X      Y      Z        X      Y      Z        X      Y      Z
 C          0.000  0.000  0.000    0.000  0.000 -0.001   -0.003  0.002  0.000
 H          0.001 -0.003 -0.002   -0.001  0.003  0.002    0.001 -0.003 -0.004
 C          0.000  0.000  0.000    0.000  0.000  0.000    0.001  0.000  0.000
 C         -0.003 -0.001 -0.002    0.000  0.000  0.000    0.000  0.000  0.000
 C          0.000  0.000  0.000    0.000  0.000  0.000    0.000  0.000  0.000
 C          0.000  0.000  0.000    0.000  0.000  0.000    0.000  0.000  0.000
 C          0.000 -0.002 -0.001    0.000  0.000  0.000    0.000  0.000  0.000
 C         -0.001  0.002  0.000    0.000  0.000  0.000    0.000  0.000  0.000
 H          0.003  0.019  0.009    0.000 -0.001  0.000    0.000 -0.001  0.000
 H          0.015 -0.017  0.002   -0.001  0.001  0.000    0.000  0.000  0.000
 H          0.039  0.007  0.024    0.000  0.000  0.000    0.000  0.000  0.000
 C         -0.001 -0.001  0.001    0.002 -0.001  0.000    0.000  0.000  0.000
 C          0.046  0.002 -0.028   -0.004 -0.001  0.003    0.000  0.000  0.000
 C         -0.035  0.015 -0.013    0.002 -0.001  0.001    0.000  0.000  0.000
 C         -0.001  0.004 -0.008    0.002  0.039 -0.076    0.000  0.000  0.000
 C          0.023 -0.013  0.012   -0.015  0.006 -0.004    0.000  0.000  0.000
 C          0.000  0.024 -0.046    0.000 -0.001  0.003    0.000  0.000  0.000
 H          0.378 -0.173  0.163   -0.016  0.008 -0.008    0.001 -0.001  0.001
 H         -0.002 -0.052  0.100   -0.022 -0.452  0.870    0.002 -0.002  0.005
 H         -0.266  0.133 -0.119    0.141 -0.068  0.058    0.000  0.000  0.000
 H          0.000 -0.258  0.507    0.000  0.014 -0.028    0.000  0.000  0.000
 H         -0.502 -0.029  0.312    0.040  0.003 -0.026    0.000  0.000  0.000
 O          0.000  0.000  0.000    0.001  0.000  0.000   -0.053 -0.007  0.032
 H         -0.001  0.000  0.001   -0.003 -0.002  0.004    0.858  0.089 -0.503
 C          0.000  0.000  0.000    0.000  0.000  0.000    0.000  0.000  0.000
 H         -0.001  0.000 -0.001    0.000  0.000  0.001   -0.001  0.002  0.002
 H          0.001  0.002  0.000    0.000  0.000  0.000    0.000  0.000  0.000
 H          0.001  0.000 -0.001    0.000  0.000  0.000    0.000  0.000 -0.001
 C          0.000  0.000  0.000    0.000  0.000  0.000    0.000  0.000  0.000
 H         -0.003 -0.001  0.001    0.000  0.000  0.000    0.000  0.000  0.000
 H          0.000  0.000  0.000    0.000  0.000  0.000   -0.001  0.000  0.000
 H          0.000  0.000  0.001    0.000  0.000  0.000    0.000  0.000 -0.001
 TransDip   0.076  0.036 -0.093   -0.039  0.005 -0.009   -0.001  0.022 -0.046

 STANDARD THERMODYNAMIC QUANTITIES AT   298.15 K  AND     1.00 ATM

   This Molecule has  0 Imaginary Frequencies
   Zero point vibrational energy:      170.697 kcal/mol

   Atom    1 Element C  Has Mass   12.00000
   Atom    2 Element H  Has Mass    1.00783
   Atom    3 Element C  Has Mass   12.00000
   Atom    4 Element C  Has Mass   12.00000
   Atom    5 Element C  Has Mass   12.00000
   Atom    6 Element C  Has Mass   12.00000
   Atom    7 Element C  Has Mass   12.00000
   Atom    8 Element C  Has Mass   12.00000
   Atom    9 Element H  Has Mass    1.00783
   Atom   10 Element H  Has Mass    1.00783
   Atom   11 Element H  Has Mass    1.00783
   Atom   12 Element C  Has Mass   12.00000
   Atom   13 Element C  Has Mass   12.00000
   Atom   14 Element C  Has Mass   12.00000
   Atom   15 Element C  Has Mass   12.00000
   Atom   16 Element C  Has Mass   12.00000
   Atom   17 Element C  Has Mass   12.00000
   Atom   18 Element H  Has Mass    1.00783
   Atom   19 Element H  Has Mass    1.00783
   Atom   20 Element H  Has Mass    1.00783
   Atom   21 Element H  Has Mass    1.00783
   Atom   22 Element H  Has Mass    1.00783
   Atom   23 Element O  Has Mass   15.99491
   Atom   24 Element H  Has Mass    1.00783
   Atom   25 Element C  Has Mass   12.00000
   Atom   26 Element H  Has Mass    1.00783
   Atom   27 Element H  Has Mass    1.00783
   Atom   28 Element H  Has Mass    1.00783
   Atom   29 Element C  Has Mass   12.00000
   Atom   30 Element H  Has Mass    1.00783
   Atom   31 Element H  Has Mass    1.00783
   Atom   32 Element H  Has Mass    1.00783
   Molecular Mass:   212.120190 amu
   Principal axes and moments of inertia in amu*Bohr^2:
                             1           2           3
    Eigenvalues --     1945.30643  4970.21150  5188.52787
          X               0.99994    -0.01090    -0.00252
          Y               0.01105     0.99764     0.06772
          Z               0.00178    -0.06774     0.99770
   Rotational Symmetry Number is   1
   The Molecule is an Asymmetric Top
   Translational Enthalpy:        0.889 kcal/mol
   Rotational Enthalpy:           0.889 kcal/mol
   Vibrational Enthalpy:        177.816 kcal/mol
   gas constant (RT):             0.592 kcal/mol
   Translational Entropy:        41.959  cal/mol.K
   Rotational Entropy:           32.284  cal/mol.K
   Vibrational Entropy:          43.981  cal/mol.K

   Total Enthalpy:              180.186 kcal/mol
   Total Entropy:               118.224  cal/mol.K
Archival summary:
1\1\node271\FREQ\ProcedureUnspecified\3-21G\11516\mssmsg\WedOct1921:56:182016WedOct1921:56:182016\0\\#,FREQ,ProcedureUnspecified,3-21G,\\0,1\O\H,1,0.994532\C,1,1.47572,2,106.609\H,3,1.09713,1,108.086,2,70.7469,0\C,3,1.52541,1,106.842,2,-174.159,0\C,5,1.3987,3,119.964,1,-18.1575,0\H,6,1.08083,5,118.544,3,3.88286,0\C,6,1.39593,5,120.189,3,-176.794,0\H,8,1.08423,6,119.721,5,-179.647,0\C,8,1.39684,6,120.263,5,0.255896,0\H,10,1.08399,8,120.237,6,-179.986,0\C,10,1.39704,8,119.651,6,-0.257621,0\H,12,1.08413,10,120.069,8,-179.534,0\C,12,1.3959,10,120.151,8,0.0130007,0\H,14,1.0839,12,120.272,10,-178.528,0\C,3,1.52797,1,112.803,2,-49.0559,0\C,16,1.41305,3,119.736,1,126.682,0\C,17,1.40093,16,119.395,3,-179.185,0\H,18,1.0845,17,119.128,16,-179.817,0\C,18,1.39247,17,120.808,16,0.328543,0\H,20,1.08413,18,120.102,17,179.643,0\C,20,1.39307,18,119.703,17,-0.495004,0\H,22,1.08469,20,120.047,18,-179.727,0\C,22,1.39961,20,121.027,18,-0.00266935,0\C,24,1.52036,22,119.287,20,-177.85,0\H,25,1.0896,24,109.649,22,-144.82,0\H,25,1.0944,24,110.561,22,-22.7891,0\H,25,1.09688,24,109.818,22,96.8797,0\C,17,1.52549,16,122.243,3,1.57049,0\H,29,1.09408,17,109.729,16,178.19,0\H,29,1.09612,17,111.632,16,58.7669,0\H,29,1.09686,17,111.892,16,-62.4434,0\\\@

 Total job time:  549.88s(wall), 529.22s(cpu) 
 Wed Oct 19 21:56:18 2016

        *************************************************************
        *                                                           *
        *  Thank you very much for using Q-Chem.  Have a nice day.  *
        *                                                           *
        *************************************************************


0 sent ACK to 0 
now end server 0 ... 
cleanup process ... done
