 Entering Gaussian System, Link 0=g09
 Input=MeMe_M0001_ES1.com
 Output=MeMe_M0001_ES1.log
 Initial command:
 /cm/shared/apps/gaussian/g09D01/g09/l1.exe "/local/dpadula/Gau-80311.inp" -scrdir="/local/dpadula/"
 Entering Link 1 = /cm/shared/apps/gaussian/g09D01/g09/l1.exe PID=     80312.
  
 Copyright (c) 1988,1990,1992,1993,1995,1998,2003,2009,2013,
            Gaussian, Inc.  All Rights Reserved.
  
 This is part of the Gaussian(R) 09 program.  It is based on
 the Gaussian(R) 03 system (copyright 2003, Gaussian, Inc.),
 the Gaussian(R) 98 system (copyright 1998, Gaussian, Inc.),
 the Gaussian(R) 94 system (copyright 1995, Gaussian, Inc.),
 the Gaussian 92(TM) system (copyright 1992, Gaussian, Inc.),
 the Gaussian 90(TM) system (copyright 1990, Gaussian, Inc.),
 the Gaussian 88(TM) system (copyright 1988, Gaussian, Inc.),
 the Gaussian 86(TM) system (copyright 1986, Carnegie Mellon
 University), and the Gaussian 82(TM) system (copyright 1983,
 Carnegie Mellon University). Gaussian is a federally registered
 trademark of Gaussian, Inc.
  
 This software contains proprietary and confidential information,
 including trade secrets, belonging to Gaussian, Inc.
  
 This software is provided under written license and may be
 used, copied, transmitted, or stored only in accord with that
 written license.
  
 The following legend is applicable only to US Government
 contracts under FAR:
  
                    RESTRICTED RIGHTS LEGEND
  
 Use, reproduction and disclosure by the US Government is
 subject to restrictions as set forth in subparagraphs (a)
 and (c) of the Commercial Computer Software - Restricted
 Rights clause in FAR 52.227-19.
  
 Gaussian, Inc.
 340 Quinnipiac St., Bldg. 40, Wallingford CT 06492
  
  
 ---------------------------------------------------------------
 Warning -- This program may not be used in any manner that
 competes with the business of Gaussian, Inc. or will provide
 assistance to any competitor of Gaussian, Inc.  The licensee
 of this program is prohibited from giving any competitor of
 Gaussian, Inc. access to this program.  By using this program,
 the user acknowledges that Gaussian, Inc. is engaged in the
 business of creating and licensing software in the field of
 computational chemistry and represents and warrants to the
 licensee that it is not a competitor of Gaussian, Inc. and that
 it will not use this program in any manner prohibited above.
 ---------------------------------------------------------------
  

 Cite this work as:
 Gaussian 09, Revision D.01,
 M. J. Frisch, G. W. Trucks, H. B. Schlegel, G. E. Scuseria, 
 M. A. Robb, J. R. Cheeseman, G. Scalmani, V. Barone, B. Mennucci, 
 G. A. Petersson, H. Nakatsuji, M. Caricato, X. Li, H. P. Hratchian, 
 A. F. Izmaylov, J. Bloino, G. Zheng, J. L. Sonnenberg, M. Hada, 
 M. Ehara, K. Toyota, R. Fukuda, J. Hasegawa, M. Ishida, T. Nakajima, 
 Y. Honda, O. Kitao, H. Nakai, T. Vreven, J. A. Montgomery, Jr., 
 J. E. Peralta, F. Ogliaro, M. Bearpark, J. J. Heyd, E. Brothers, 
 K. N. Kudin, V. N. Staroverov, T. Keith, R. Kobayashi, J. Normand, 
 K. Raghavachari, A. Rendell, J. C. Burant, S. S. Iyengar, J. Tomasi, 
 M. Cossi, N. Rega, J. M. Millam, M. Klene, J. E. Knox, J. B. Cross, 
 V. Bakken, C. Adamo, J. Jaramillo, R. Gomperts, R. E. Stratmann, 
 O. Yazyev, A. J. Austin, R. Cammi, C. Pomelli, J. W. Ochterski, 
 R. L. Martin, K. Morokuma, V. G. Zakrzewski, G. A. Voth, 
 P. Salvador, J. J. Dannenberg, S. Dapprich, A. D. Daniels, 
 O. Farkas, J. B. Foresman, J. V. Ortiz, J. Cioslowski, 
 and D. J. Fox, Gaussian, Inc., Wallingford CT, 2013.
 
 ******************************************
 Gaussian 09:  ES64L-G09RevD.01 24-Apr-2013
                23-Jul-2016 
 ******************************************
 %nprocshared=32
 Will use up to   32 processors via shared memory.
 %chk=MeMe_M0001_ES1.chk
 %mem=24GB
 ----------------------------------------------------------------------
 #p opt freq=(noraman,hpmodes) td=(nstates=16,root=1) wb97xd def2tzvp s
 crf=(iefpcm,solvent=ethanol) nosymm
 ----------------------------------------------------------------------
 1/14=-1,18=20,19=15,26=3,38=1/1,3;
 2/9=110,12=2,15=1,17=6,18=5,40=1/2;
 3/5=44,7=101,11=9,16=1,25=1,30=1,70=2201,71=1,72=4,74=-58/1,2,8,3;
 4//1;
 5/5=2,38=5,53=4/2;
 8/6=1,10=1,107=1,108=16/1;
 9/8=1,15=2,41=16,42=1,70=2/14;
 10/5=4,31=1/2;
 6/7=2,8=2,9=2,10=2/1;
 7/12=6,13=5,14=1,30=1/1,2,3,16;
 1/14=-1,18=20,19=15,26=3/3(2);
 2/9=110,15=1/2;
 99//99;
 2/9=110,15=1/2;
 3/5=44,7=101,11=9,16=1,25=1,30=1,70=2205,71=1,72=4,74=-58/1,2,8,3;
 4/5=5,16=3,69=1/1;
 5/5=2,38=5,53=4/2;
 8/6=1,10=1,107=1,108=16/1;
 9/8=1,15=2,41=16,42=1,49=4,70=2/14;
 10/5=4,31=1/2;
 7/12=6,13=5,14=1,30=1/1,2,3,16;
 1/14=-1,18=20,19=15,26=3/3(-8);
 2/9=110,15=1/2;
 6/7=2,8=2,9=2,10=2/1;
 99//99;
 Leave Link    1 at Sat Jul 23 16:46:38 2016, MaxMem=  3221225472 cpu:         5.3
 (Enter /cm/shared/apps/gaussian/g09D01/g09/l101.exe)
 ----------
 MeMe_M0001
 ----------
 Symbolic Z-matrix:
 Charge =  0 Multiplicity = 1
 C                     0.12686  -0.72369   0.9537 
 H                     0.03095  -1.81227   0.92863 
 C                    -1.10979  -0.12432   0.30124 
 C                    -3.41218   0.94861  -0.84444 
 C                    -2.12637  -0.97343  -0.15857 
 C                    -1.24505   1.26795   0.1743 
 C                    -2.40429   1.78177  -0.39401 
 C                    -3.26862  -0.42031  -0.72905 
 H                    -2.51257   2.85582  -0.48855 
 H                    -4.05388  -1.0772   -1.08383 
 H                    -4.30787   1.36726  -1.28607 
 C                     1.41716  -0.40725   0.22563 
 C                     3.7932    0.08367  -1.15061 
 C                     1.47054  -0.52981  -1.15906 
 C                     2.56486  -0.04182   0.9148 
 C                     3.74494   0.20597   0.22871 
 C                     2.64965  -0.287    -1.84349 
 H                     0.57559  -0.80126  -1.70756 
 H                     2.52572   0.05959   1.99032 
 H                     4.63219   0.49648   0.77767 
 H                     2.67504  -0.38403  -2.92175 
 H                     4.71548   0.27729  -1.68354 
 O                     0.2515   -0.32948   2.3142 
 H                    -0.60869  -0.42759   2.72489 
 C                    -0.16614   2.22793   0.60164 
 H                     0.26904   1.95179   1.55959 
 H                    -0.56805   3.23831   0.67568 
 H                     0.64563   2.24076  -0.1292 
 C                    -2.02857  -2.47711  -0.06816 
 H                    -1.16921  -2.86441  -0.61945 
 H                    -2.92232  -2.93717  -0.48788 
 H                    -1.93557  -2.82275   0.9637 
 
 NAtoms=     32 NQM=       32 NQMF=       0 NMMI=      0 NMMIF=      0
                NMic=       0 NMicF=      0.
                    Isotopes and Nuclear Properties:
 (Nuclear quadrupole moments (NQMom) in fm**2, nuclear magnetic moments (NMagM)
  in nuclear magnetons)

  Atom         1           2           3           4           5           6           7           8           9          10
 IAtWgt=          12           1          12          12          12          12          12          12           1           1
 AtmWgt=  12.0000000   1.0078250  12.0000000  12.0000000  12.0000000  12.0000000  12.0000000  12.0000000   1.0078250   1.0078250
 NucSpn=           0           1           0           0           0           0           0           0           1           1
 AtZEff=   0.0000000   0.0000000   0.0000000   0.0000000   0.0000000   0.0000000   0.0000000   0.0000000   0.0000000   0.0000000
 NQMom=    0.0000000   0.0000000   0.0000000   0.0000000   0.0000000   0.0000000   0.0000000   0.0000000   0.0000000   0.0000000
 NMagM=    0.0000000   2.7928460   0.0000000   0.0000000   0.0000000   0.0000000   0.0000000   0.0000000   2.7928460   2.7928460
 AtZNuc=   6.0000000   1.0000000   6.0000000   6.0000000   6.0000000   6.0000000   6.0000000   6.0000000   1.0000000   1.0000000

  Atom        11          12          13          14          15          16          17          18          19          20
 IAtWgt=           1          12          12          12          12          12          12           1           1           1
 AtmWgt=   1.0078250  12.0000000  12.0000000  12.0000000  12.0000000  12.0000000  12.0000000   1.0078250   1.0078250   1.0078250
 NucSpn=           1           0           0           0           0           0           0           1           1           1
 AtZEff=   0.0000000   0.0000000   0.0000000   0.0000000   0.0000000   0.0000000   0.0000000   0.0000000   0.0000000   0.0000000
 NQMom=    0.0000000   0.0000000   0.0000000   0.0000000   0.0000000   0.0000000   0.0000000   0.0000000   0.0000000   0.0000000
 NMagM=    2.7928460   0.0000000   0.0000000   0.0000000   0.0000000   0.0000000   0.0000000   2.7928460   2.7928460   2.7928460
 AtZNuc=   1.0000000   6.0000000   6.0000000   6.0000000   6.0000000   6.0000000   6.0000000   1.0000000   1.0000000   1.0000000

  Atom        21          22          23          24          25          26          27          28          29          30
 IAtWgt=           1           1          16           1          12           1           1           1          12           1
 AtmWgt=   1.0078250   1.0078250  15.9949146   1.0078250  12.0000000   1.0078250   1.0078250   1.0078250  12.0000000   1.0078250
 NucSpn=           1           1           0           1           0           1           1           1           0           1
 AtZEff=   0.0000000   0.0000000   0.0000000   0.0000000   0.0000000   0.0000000   0.0000000   0.0000000   0.0000000   0.0000000
 NQMom=    0.0000000   0.0000000   0.0000000   0.0000000   0.0000000   0.0000000   0.0000000   0.0000000   0.0000000   0.0000000
 NMagM=    2.7928460   2.7928460   0.0000000   2.7928460   0.0000000   2.7928460   2.7928460   2.7928460   0.0000000   2.7928460
 AtZNuc=   1.0000000   1.0000000   8.0000000   1.0000000   6.0000000   1.0000000   1.0000000   1.0000000   6.0000000   1.0000000

  Atom        31          32
 IAtWgt=           1           1
 AtmWgt=   1.0078250   1.0078250
 NucSpn=           1           1
 AtZEff=   0.0000000   0.0000000
 NQMom=    0.0000000   0.0000000
 NMagM=    2.7928460   2.7928460
 AtZNuc=   1.0000000   1.0000000
 Leave Link  101 at Sat Jul 23 16:46:38 2016, MaxMem=  3221225472 cpu:         8.7
 (Enter /cm/shared/apps/gaussian/g09D01/g09/l103.exe)

 GradGradGradGradGradGradGradGradGradGradGradGradGradGradGradGradGradGrad
 Berny optimization.
 Initialization pass.
                           ----------------------------
                           !    Initial Parameters    !
                           ! (Angstroms and Degrees)  !
 --------------------------                            --------------------------
 ! Name  Definition              Value          Derivative Info.                !
 --------------------------------------------------------------------------------
 ! R1    R(1,2)                  1.0931         estimate D2E/DX2                !
 ! R2    R(1,3)                  1.5213         estimate D2E/DX2                !
 ! R3    R(1,12)                 1.5149         estimate D2E/DX2                !
 ! R4    R(1,23)                 1.4219         estimate D2E/DX2                !
 ! R5    R(3,5)                  1.4021         estimate D2E/DX2                !
 ! R6    R(3,6)                  1.4046         estimate D2E/DX2                !
 ! R7    R(4,7)                  1.3831         estimate D2E/DX2                !
 ! R8    R(4,8)                  1.3813         estimate D2E/DX2                !
 ! R9    R(4,11)                 1.0828         estimate D2E/DX2                !
 ! R10   R(5,8)                  1.3914         estimate D2E/DX2                !
 ! R11   R(5,29)                 1.5096         estimate D2E/DX2                !
 ! R12   R(6,7)                  1.3895         estimate D2E/DX2                !
 ! R13   R(6,25)                 1.5061         estimate D2E/DX2                !
 ! R14   R(7,9)                  1.0836         estimate D2E/DX2                !
 ! R15   R(8,10)                 1.0835         estimate D2E/DX2                !
 ! R16   R(12,14)                1.3911         estimate D2E/DX2                !
 ! R17   R(12,15)                1.3877         estimate D2E/DX2                !
 ! R18   R(13,16)                1.3856         estimate D2E/DX2                !
 ! R19   R(13,17)                1.3875         estimate D2E/DX2                !
 ! R20   R(13,22)                1.0826         estimate D2E/DX2                !
 ! R21   R(14,17)                1.3848         estimate D2E/DX2                !
 ! R22   R(14,18)                1.0842         estimate D2E/DX2                !
 ! R23   R(15,16)                1.3873         estimate D2E/DX2                !
 ! R24   R(15,19)                1.081          estimate D2E/DX2                !
 ! R25   R(16,20)                1.083          estimate D2E/DX2                !
 ! R26   R(17,21)                1.0829         estimate D2E/DX2                !
 ! R27   R(23,24)                0.9582         estimate D2E/DX2                !
 ! R28   R(25,26)                1.0878         estimate D2E/DX2                !
 ! R29   R(25,27)                1.0899         estimate D2E/DX2                !
 ! R30   R(25,28)                1.0924         estimate D2E/DX2                !
 ! R31   R(29,30)                1.092          estimate D2E/DX2                !
 ! R32   R(29,31)                1.0893         estimate D2E/DX2                !
 ! R33   R(29,32)                1.0922         estimate D2E/DX2                !
 ! A1    A(2,1,3)              108.1321         estimate D2E/DX2                !
 ! A2    A(2,1,12)             105.767          estimate D2E/DX2                !
 ! A3    A(2,1,23)             107.8018         estimate D2E/DX2                !
 ! A4    A(3,1,12)             113.825          estimate D2E/DX2                !
 ! A5    A(3,1,23)             111.8627         estimate D2E/DX2                !
 ! A6    A(12,1,23)            109.1027         estimate D2E/DX2                !
 ! A7    A(1,3,5)              119.4359         estimate D2E/DX2                !
 ! A8    A(1,3,6)              120.5031         estimate D2E/DX2                !
 ! A9    A(5,3,6)              120.0556         estimate D2E/DX2                !
 ! A10   A(7,4,8)              119.6086         estimate D2E/DX2                !
 ! A11   A(7,4,11)             120.1787         estimate D2E/DX2                !
 ! A12   A(8,4,11)             120.2126         estimate D2E/DX2                !
 ! A13   A(3,5,8)              119.2695         estimate D2E/DX2                !
 ! A14   A(3,5,29)             122.4543         estimate D2E/DX2                !
 ! A15   A(8,5,29)             118.2749         estimate D2E/DX2                !
 ! A16   A(3,6,7)              118.9361         estimate D2E/DX2                !
 ! A17   A(3,6,25)             122.493          estimate D2E/DX2                !
 ! A18   A(7,6,25)             118.555          estimate D2E/DX2                !
 ! A19   A(4,7,6)              121.2251         estimate D2E/DX2                !
 ! A20   A(4,7,9)              119.7258         estimate D2E/DX2                !
 ! A21   A(6,7,9)              119.0482         estimate D2E/DX2                !
 ! A22   A(4,8,5)              120.8996         estimate D2E/DX2                !
 ! A23   A(4,8,10)             119.8785         estimate D2E/DX2                !
 ! A24   A(5,8,10)             119.2217         estimate D2E/DX2                !
 ! A25   A(1,12,14)            119.5146         estimate D2E/DX2                !
 ! A26   A(1,12,15)            121.3819         estimate D2E/DX2                !
 ! A27   A(14,12,15)           119.0642         estimate D2E/DX2                !
 ! A28   A(16,13,17)           119.4716         estimate D2E/DX2                !
 ! A29   A(16,13,22)           120.2589         estimate D2E/DX2                !
 ! A30   A(17,13,22)           120.2695         estimate D2E/DX2                !
 ! A31   A(12,14,17)           120.6093         estimate D2E/DX2                !
 ! A32   A(12,14,18)           119.6006         estimate D2E/DX2                !
 ! A33   A(17,14,18)           119.7816         estimate D2E/DX2                !
 ! A34   A(12,15,16)           120.3268         estimate D2E/DX2                !
 ! A35   A(12,15,19)           119.266          estimate D2E/DX2                !
 ! A36   A(16,15,19)           120.4027         estimate D2E/DX2                !
 ! A37   A(13,16,15)           120.4086         estimate D2E/DX2                !
 ! A38   A(13,16,20)           119.9823         estimate D2E/DX2                !
 ! A39   A(15,16,20)           119.6092         estimate D2E/DX2                !
 ! A40   A(13,17,14)           120.1182         estimate D2E/DX2                !
 ! A41   A(13,17,21)           120.1216         estimate D2E/DX2                !
 ! A42   A(14,17,21)           119.7598         estimate D2E/DX2                !
 ! A43   A(1,23,24)            107.6386         estimate D2E/DX2                !
 ! A44   A(6,25,26)            112.0036         estimate D2E/DX2                !
 ! A45   A(6,25,27)            110.2435         estimate D2E/DX2                !
 ! A46   A(6,25,28)            110.488          estimate D2E/DX2                !
 ! A47   A(26,25,27)           108.8464         estimate D2E/DX2                !
 ! A48   A(26,25,28)           107.1494         estimate D2E/DX2                !
 ! A49   A(27,25,28)           107.9745         estimate D2E/DX2                !
 ! A50   A(5,29,30)            111.9654         estimate D2E/DX2                !
 ! A51   A(5,29,31)            110.1488         estimate D2E/DX2                !
 ! A52   A(5,29,32)            112.169          estimate D2E/DX2                !
 ! A53   A(30,29,31)           107.5396         estimate D2E/DX2                !
 ! A54   A(30,29,32)           107.3203         estimate D2E/DX2                !
 ! A55   A(31,29,32)           107.4715         estimate D2E/DX2                !
 ! D1    D(2,1,3,5)              1.9325         estimate D2E/DX2                !
 ! D2    D(2,1,3,6)           -178.9182         estimate D2E/DX2                !
 ! D3    D(12,1,3,5)           119.1366         estimate D2E/DX2                !
 ! D4    D(12,1,3,6)           -61.714          estimate D2E/DX2                !
 ! D5    D(23,1,3,5)          -116.624          estimate D2E/DX2                !
 ! D6    D(23,1,3,6)            62.5253         estimate D2E/DX2                !
 ! D7    D(2,1,12,14)           73.2716         estimate D2E/DX2                !
 ! D8    D(2,1,12,15)         -104.4278         estimate D2E/DX2                !
 ! D9    D(3,1,12,14)          -45.2949         estimate D2E/DX2                !
 ! D10   D(3,1,12,15)          137.0057         estimate D2E/DX2                !
 ! D11   D(23,1,12,14)        -171.0081         estimate D2E/DX2                !
 ! D12   D(23,1,12,15)          11.2925         estimate D2E/DX2                !
 ! D13   D(2,1,23,24)          -73.1153         estimate D2E/DX2                !
 ! D14   D(3,1,23,24)           45.6372         estimate D2E/DX2                !
 ! D15   D(12,1,23,24)         172.4768         estimate D2E/DX2                !
 ! D16   D(1,3,5,8)            178.6448         estimate D2E/DX2                !
 ! D17   D(1,3,5,29)            -1.779          estimate D2E/DX2                !
 ! D18   D(6,3,5,8)             -0.5084         estimate D2E/DX2                !
 ! D19   D(6,3,5,29)           179.0678         estimate D2E/DX2                !
 ! D20   D(1,3,6,7)           -178.2658         estimate D2E/DX2                !
 ! D21   D(1,3,6,25)             3.2084         estimate D2E/DX2                !
 ! D22   D(5,3,6,7)              0.8782         estimate D2E/DX2                !
 ! D23   D(5,3,6,25)          -177.6476         estimate D2E/DX2                !
 ! D24   D(8,4,7,6)              0.0199         estimate D2E/DX2                !
 ! D25   D(8,4,7,9)            179.666          estimate D2E/DX2                !
 ! D26   D(11,4,7,6)          -179.9016         estimate D2E/DX2                !
 ! D27   D(11,4,7,9)            -0.2555         estimate D2E/DX2                !
 ! D28   D(7,4,8,5)              0.3659         estimate D2E/DX2                !
 ! D29   D(7,4,8,10)          -179.7739         estimate D2E/DX2                !
 ! D30   D(11,4,8,5)          -179.7127         estimate D2E/DX2                !
 ! D31   D(11,4,8,10)            0.1475         estimate D2E/DX2                !
 ! D32   D(3,5,8,4)             -0.1191         estimate D2E/DX2                !
 ! D33   D(3,5,8,10)          -179.9802         estimate D2E/DX2                !
 ! D34   D(29,5,8,4)          -179.713          estimate D2E/DX2                !
 ! D35   D(29,5,8,10)            0.4259         estimate D2E/DX2                !
 ! D36   D(3,5,29,30)          -60.0274         estimate D2E/DX2                !
 ! D37   D(3,5,29,31)         -179.6394         estimate D2E/DX2                !
 ! D38   D(3,5,29,32)           60.7018         estimate D2E/DX2                !
 ! D39   D(8,5,29,30)          119.5528         estimate D2E/DX2                !
 ! D40   D(8,5,29,31)           -0.0592         estimate D2E/DX2                !
 ! D41   D(8,5,29,32)         -119.718          estimate D2E/DX2                !
 ! D42   D(3,6,7,4)             -0.6378         estimate D2E/DX2                !
 ! D43   D(3,6,7,9)            179.7138         estimate D2E/DX2                !
 ! D44   D(25,6,7,4)           177.9466         estimate D2E/DX2                !
 ! D45   D(25,6,7,9)            -1.7019         estimate D2E/DX2                !
 ! D46   D(3,6,25,26)          -43.0996         estimate D2E/DX2                !
 ! D47   D(3,6,25,27)         -164.4571         estimate D2E/DX2                !
 ! D48   D(3,6,25,28)           76.2735         estimate D2E/DX2                !
 ! D49   D(7,6,25,26)          138.3693         estimate D2E/DX2                !
 ! D50   D(7,6,25,27)           17.0118         estimate D2E/DX2                !
 ! D51   D(7,6,25,28)         -102.2577         estimate D2E/DX2                !
 ! D52   D(1,12,14,17)        -177.9636         estimate D2E/DX2                !
 ! D53   D(1,12,14,18)           3.1027         estimate D2E/DX2                !
 ! D54   D(15,12,14,17)         -0.2106         estimate D2E/DX2                !
 ! D55   D(15,12,14,18)       -179.1444         estimate D2E/DX2                !
 ! D56   D(1,12,15,16)         178.1442         estimate D2E/DX2                !
 ! D57   D(1,12,15,19)          -2.6189         estimate D2E/DX2                !
 ! D58   D(14,12,15,16)          0.4347         estimate D2E/DX2                !
 ! D59   D(14,12,15,19)        179.6716         estimate D2E/DX2                !
 ! D60   D(17,13,16,15)          0.1143         estimate D2E/DX2                !
 ! D61   D(17,13,16,20)       -179.8937         estimate D2E/DX2                !
 ! D62   D(22,13,16,15)       -179.9789         estimate D2E/DX2                !
 ! D63   D(22,13,16,20)          0.0131         estimate D2E/DX2                !
 ! D64   D(16,13,17,14)          0.1103         estimate D2E/DX2                !
 ! D65   D(16,13,17,21)        179.892          estimate D2E/DX2                !
 ! D66   D(22,13,17,14)       -179.7965         estimate D2E/DX2                !
 ! D67   D(22,13,17,21)         -0.0147         estimate D2E/DX2                !
 ! D68   D(12,14,17,13)         -0.0612         estimate D2E/DX2                !
 ! D69   D(12,14,17,21)       -179.8438         estimate D2E/DX2                !
 ! D70   D(18,14,17,13)        178.8706         estimate D2E/DX2                !
 ! D71   D(18,14,17,21)         -0.912          estimate D2E/DX2                !
 ! D72   D(12,15,16,13)         -0.3905         estimate D2E/DX2                !
 ! D73   D(12,15,16,20)        179.6175         estimate D2E/DX2                !
 ! D74   D(19,15,16,13)       -179.6187         estimate D2E/DX2                !
 ! D75   D(19,15,16,20)          0.3893         estimate D2E/DX2                !
 --------------------------------------------------------------------------------
 Trust Radius=3.00D-01 FncErr=1.00D-07 GrdErr=1.00D-06
 Number of steps in this run=    173 maximum allowed number of steps=    192.
 GradGradGradGradGradGradGradGradGradGradGradGradGradGradGradGradGradGrad

 Leave Link  103 at Sat Jul 23 16:46:38 2016, MaxMem=  3221225472 cpu:         0.3
 (Enter /cm/shared/apps/gaussian/g09D01/g09/l202.exe)
                          Input orientation:                          
 ---------------------------------------------------------------------
 Center     Atomic      Atomic             Coordinates (Angstroms)
 Number     Number       Type             X           Y           Z
 ---------------------------------------------------------------------
      1          6           0        0.126863   -0.723690    0.953698
      2          1           0        0.030954   -1.812271    0.928634
      3          6           0       -1.109786   -0.124323    0.301239
      4          6           0       -3.412180    0.948606   -0.844442
      5          6           0       -2.126369   -0.973431   -0.158565
      6          6           0       -1.245046    1.267954    0.174303
      7          6           0       -2.404293    1.781769   -0.394011
      8          6           0       -3.268618   -0.420311   -0.729054
      9          1           0       -2.512569    2.855816   -0.488548
     10          1           0       -4.053877   -1.077196   -1.083831
     11          1           0       -4.307869    1.367258   -1.286068
     12          6           0        1.417156   -0.407253    0.225633
     13          6           0        3.793195    0.083673   -1.150612
     14          6           0        1.470541   -0.529812   -1.159055
     15          6           0        2.564860   -0.041818    0.914804
     16          6           0        3.744943    0.205969    0.228714
     17          6           0        2.649650   -0.286996   -1.843485
     18          1           0        0.575588   -0.801255   -1.707563
     19          1           0        2.525718    0.059587    1.990319
     20          1           0        4.632191    0.496484    0.777674
     21          1           0        2.675037   -0.384031   -2.921752
     22          1           0        4.715477    0.277292   -1.683537
     23          8           0        0.251495   -0.329476    2.314196
     24          1           0       -0.608685   -0.427586    2.724890
     25          6           0       -0.166144    2.227926    0.601644
     26          1           0        0.269035    1.951792    1.559587
     27          1           0       -0.568053    3.238312    0.675680
     28          1           0        0.645634    2.240757   -0.129196
     29          6           0       -2.028568   -2.477108   -0.068156
     30          1           0       -1.169211   -2.864412   -0.619446
     31          1           0       -2.922318   -2.937170   -0.487878
     32          1           0       -1.935569   -2.822752    0.963696
 ---------------------------------------------------------------------
                    Distance matrix (angstroms):
                    1          2          3          4          5
     1  C    0.000000
     2  H    1.093085   0.000000
     3  C    1.521264   2.131685   0.000000
     4  C    4.307517   4.756197   2.786535   0.000000
     5  C    2.525184   2.557283   1.402086   2.412045   0.000000
     6  C    2.540913   3.418330   1.404579   2.415842   2.431324
     7  C    3.807938   4.538385   2.406721   1.383071   2.779173
     8  C    3.801708   3.946221   2.410325   1.381252   1.391450
     9  H    4.675418   5.501722   3.387151   2.138553   3.862793
    10  H    4.664234   4.612613   3.390289   2.138447   2.140601
    11  H    5.390312   5.817190   3.869379   1.082849   3.392496
    12  C    1.514948   2.095195   2.543856   5.128928   3.608980
    13  C    4.303713   4.698119   5.117651   7.263558   6.094495
    14  C    2.511331   2.841752   2.992485   5.111327   3.759726
    15  C    2.531855   3.091177   3.726432   6.308795   4.901801
    16  C    3.805308   4.284495   4.866492   7.275135   6.001106
    17  C    3.792016   4.107149   4.331243   6.266624   5.110822
    18  H    2.699941   2.875468   2.708137   4.439514   3.119232
    19  H    2.728115   3.294674   4.012942   6.639643   5.227499
    20  H    4.670952   5.150196   5.795058   8.218733   6.979637
    21  H    4.650556   4.884313   4.977952   6.568512   5.571005
    22  H    5.386312   5.756255   6.167197   8.198387   7.120443
    23  O    1.421933   2.041348   2.438682   5.003299   3.490482
    24  H    1.940575   2.356486   2.493422   4.742744   3.303880
    25  C    2.986944   4.058197   2.552211   3.776847   3.830024
    26  H    2.746911   3.823997   2.791924   4.509665   4.152943
    27  H    4.032079   5.092267   3.426514   3.955071   4.567613
    28  H    3.198395   4.233659   2.976639   4.318227   4.244510
    29  C    2.960497   2.382694   2.552687   3.775251   1.509564
    30  H    2.955889   2.223499   2.891242   4.429519   2.168956
    31  H    4.034246   3.463195   3.438035   3.932729   2.144354
    32  H    2.942752   2.211225   2.898670   4.435413   2.171604
                    6          7          8          9         10
     6  C    0.000000
     7  C    1.389547   0.000000
     8  C    2.785882   2.389240   0.000000
     9  H    2.137122   1.083623   3.370825   0.000000
    10  H    3.869388   3.372041   1.083511   4.265979   0.000000
    11  H    3.394618   2.142705   2.141427   2.464740   2.465921
    12  C    3.145834   4.447387   4.782058   5.157559   5.665309
    13  C    5.342452   6.470304   7.092314   6.919954   7.932756
    14  C    3.519122   4.576356   4.759886   5.270410   5.551980
    15  C    4.096246   5.452609   6.072478   6.012151   6.991011
    16  C    5.102035   6.378404   7.106306   6.833199   8.011921
    17  C    4.653815   5.650053   6.023755   6.193676   6.792552
    18  H    3.337327   4.156576   3.985037   4.939320   4.679437
    19  H    4.356228   5.740727   6.418693   6.272800   7.350765
    20  H    5.958283   7.248235   8.095278   7.630030   9.021610
    21  H    5.261336   6.072871   6.335320   6.582427   7.009759
    22  H    6.321457   7.390362   8.071150   7.766687   8.893585
    23  O    3.061137   4.341077   4.654118   5.063745   5.535513
    24  H    3.128147   4.222914   4.359475   4.973096   5.176649
    25  C    1.506053   2.489919   4.290602   2.662419   5.373930
    26  H    2.163120   3.315439   4.835260   3.570635   5.903388
    27  H    2.142897   2.576341   4.759396   2.298450   5.819833
    28  H    2.147819   3.095618   4.771004   3.237542   5.831427
    29  C    3.833821   4.287818   2.490969   5.371319   2.663311
    30  H    4.208591   4.812821   3.223841   5.877308   3.425068
    31  H    4.575455   4.748215   2.551993   5.807459   2.257230
    32  H    4.223013   4.823348   3.227095   5.889658   3.424407
                   11         12         13         14         15
    11  H    0.000000
    12  C    6.181427   0.000000
    13  C    8.203242   2.789376   0.000000
    14  C    6.083176   1.391126   2.402323   0.000000
    15  C    7.352805   1.387705   2.406345   2.395112   0.000000
    16  C    8.275925   2.407206   1.385577   2.764088   1.387341
    17  C    7.173168   2.411380   1.387503   1.384811   2.770462
    18  H    5.359875   2.144929   3.383236   1.084197   3.377981
    19  H    7.690424   2.135642   3.387112   3.373329   1.080994
    20  H    9.216396   3.384958   2.143039   3.847107   2.140661
    21  H    7.382645   3.389519   2.146150   2.139898   3.853364
    22  H    9.097625   3.872009   1.082636   3.384687   3.387973
    23  O    6.052157   2.393096   4.971843   3.686418   2.718953
    24  H    5.743972   3.217255   5.887058   4.406661   3.673774
    25  C    4.632288   3.097159   4.831624   3.658404   3.564855
    26  H    5.421022   2.943248   4.822318   3.872078   3.108221
    27  H    4.619039   4.175373   5.683975   4.660566   4.542200
    28  H    5.161254   2.780846   3.950119   3.068735   3.159670
    29  C    4.632243   4.030338   6.451530   4.150396   5.291165
    30  H    5.310611   3.666208   5.796449   3.565084   4.925875
    31  H    4.591836   5.073521   7.393431   5.054014   6.360794
    32  H    5.314643   4.197635   6.762865   4.622254   5.290543
                   16         17         18         19         20
    16  C    0.000000
    17  C    2.395139   0.000000
    18  H    3.848179   2.141184   0.000000
    19  H    2.147368   3.851432   4.268300   0.000000
    20  H    1.083035   3.378577   4.931182   2.469537   0.000000
    21  H    3.379088   1.082922   2.460898   4.934322   4.276858
    22  H    2.145630   2.147474   4.278145   4.282483   2.472355
    23  O    4.103671   4.799923   4.062285   2.329883   4.715253
    24  H    5.058296   5.613071   4.603126   3.255981   5.666775
    25  C    4.418596   4.498020   3.880534   3.725082   5.104204
    26  H    4.111090   4.718093   4.283400   2.976338   4.665452
    27  H    5.291202   5.396999   4.827615   4.626444   5.879674
    28  H    3.724806   3.652999   3.427825   3.575551   4.444945
    29  C    6.373418   5.462061   3.503964   5.604789   7.343255
    30  H    5.856238   4.767079   2.912892   5.386385   6.848637
    31  H    7.405754   6.317272   4.276109   6.693512   8.394177
    32  H    6.479318   5.944288   4.186644   5.409706   7.361209
                   21         22         23         24         25
    21  H    0.000000
    22  H    2.476675   0.000000
    23  O    5.769895   6.023053   0.000000
    24  H    6.532174   6.948222   0.958230   0.000000
    25  C    5.225796   5.732124   3.106052   3.428667   0.000000
    26  H    5.597081   5.752621   2.402900   2.791015   1.087789
    27  H    6.048183   6.499941   4.010674   4.199967   1.089905
    28  H    4.336630   4.778576   3.568138   4.103557   1.092371
    29  C    5.886245   7.461791   3.935303   3.744024   5.104371
    30  H    5.121635   6.755157   4.129233   4.175751   5.331896
    31  H    6.616090   8.372471   4.972401   4.687514   5.954979
    32  H    6.503980   7.800931   3.580995   3.255648   5.363888
                   26         27         28         29         30
    26  H    0.000000
    27  H    1.771198   0.000000
    28  H    1.754228   1.765213   0.000000
    29  C    5.248208   5.945790   5.423406   0.000000
    30  H    5.478372   6.267534   5.440290   1.091980   0.000000
    31  H    6.186986   6.710664   6.298402   1.089318   1.759542
    32  H    5.292602   6.220092   5.787585   1.092171   1.759369
                   31         32
    31  H    0.000000
    32  H    1.758929   0.000000
 Symmetry turned off by external request.
 Stoichiometry    C15H16O
 Framework group  C1[X(C15H16O)]
 Deg. of freedom    90
 Full point group                 C1      NOp   1
 Rotational constants (GHZ):      0.9559975      0.3653354      0.3521556
 Leave Link  202 at Sat Jul 23 16:46:39 2016, MaxMem=  3221225472 cpu:         2.3
 (Enter /cm/shared/apps/gaussian/g09D01/g09/l301.exe)
 Standard basis: def2TZVP (5D, 7F)
 Ernie: Thresh=  0.10000D-02 Tol=  0.10000D-05 Strict=F.
   592 basis functions,   944 primitive gaussians,   672 cartesian basis functions
    57 alpha electrons       57 beta electrons
       nuclear repulsion energy      1063.3303971366 Hartrees.
 IExCor= 4639 DFT=T Ex+Corr=wB97XD ExCW=0 ScaHFX=  1.000000
 ScaDFX=  1.000000  1.000000  1.000000  1.000000 ScalE2=  1.000000  1.000000
 IRadAn=      0 IRanWt=     -1 IRanGd=            0 ICorTp=0 IEmpDi=121
  HFx wShort=  0.000000 wLong=  0.200000 cFull=  0.222036 cShort=  0.000000 cLong=  0.777964
  DFx wShort=  0.000000 wLong=  0.200000 cFull=  0.000000 cShort=  0.000000 cLong=  1.000000
 NAtoms=   32 NActive=   32 NUniq=   32 SFac= 1.00D+00 NAtFMM=   60 NAOKFM=F Big=F
 Integral buffers will be    131072 words long.
 Raffenetti 1 integral format.
 Two-electron integral symmetry is turned off.
 R6Disp:  Grimme-D2 Dispersion energy=       -0.0246604918 Hartrees.
 Nuclear repulsion after empirical dispersion term =     1063.3057366448 Hartrees.
 ------------------------------------------------------------------------------
 Polarizable Continuum Model (PCM)
 =================================
 Model                : PCM (using non-symmetric T matrix).
 Atomic radii         : UFF (Universal Force Field).
 Polarization charges : Total charges.
 Charge compensation  : None.
 Solution method      : On-the-fly selection.
 Cavity type          : Scaled VdW (van der Waals Surface) (Alpha=1.100).
 Cavity algorithm     : GePol (No added spheres)
                        Default sphere list used, NSphG=   32.
                        Lebedev-Laikov grids with approx.  5.0 points / Ang**2.
                        Smoothing algorithm: Karplus/York (Gamma=1.0000).
                        Polarization charges: spherical gaussians, with
                                              point-specific exponents (IZeta= 3).
                        Self-potential: point-specific (ISelfS= 7).
                        Self-field    : sphere-specific E.n sum rule (ISelfD= 2).
 1st derivatives      : Analytical E(r).r(x)/FMM algorithm (CHGder, D1EAlg=3).
                        Cavity 1st derivative terms included.
 Solvent              : Ethanol, Eps=  24.852000 Eps(inf)=   1.852593
 ------------------------------------------------------------------------------
 GePol: Number of generator spheres                  =      32
 GePol: Total number of spheres                      =      32
 GePol: Number of exposed spheres                    =      32 (100.00%)
 GePol: Number of points                             =    2252
 GePol: Average weight of points                     =       0.13
 GePol: Minimum weight of points                     =   0.13D-11
 GePol: Maximum weight of points                     =    0.20577
 GePol: Number of points with low weight             =     152
 GePol: Fraction of low-weight points (<1% of avg)   =       6.75%
 GePol: Cavity surface area                          =    293.313 Ang**2
 GePol: Cavity volume                                =    321.382 Ang**3
 Leave Link  301 at Sat Jul 23 16:46:39 2016, MaxMem=  3221225472 cpu:         1.8
 (Enter /cm/shared/apps/gaussian/g09D01/g09/l302.exe)
 NPDir=0 NMtPBC=     1 NCelOv=     1 NCel=       1 NClECP=     1 NCelD=      1
         NCelK=      1 NCelE2=     1 NClLst=     1 CellRange=     0.0.
 One-electron integrals computed using PRISM.
   1 Symmetry operations used in ECPInt.
 ECPInt:  NShTT=   28920 NPrTT=   87136 LenC2=   27076 LenP2D=   60737.
 LDataN:  DoStor=T MaxTD1= 6 Len=  172
 NBasis=   592 RedAO= T EigKep=  4.12D-06  NBF=   592
 NBsUse=   592 1.00D-06 EigRej= -1.00D+00 NBFU=   592
 Precomputing XC quadrature grid using
 IXCGrd= 4 IRadAn=           0 IRanWt=          -1 IRanGd=           0 AccXCQ= 0.00D+00.
 Generated NRdTot=       0 NPtTot=           0 NUsed=           0 NTot=          32
 NSgBfM=   664   664   664   664   665 MxSgAt=    32 MxSgA2=    32.
 Leave Link  302 at Sat Jul 23 16:46:42 2016, MaxMem=  3221225472 cpu:       112.7
 (Enter /cm/shared/apps/gaussian/g09D01/g09/l308.exe)
 Leave Link  308 at Sat Jul 23 16:46:43 2016, MaxMem=  3221225472 cpu:        14.7
 (Enter /cm/shared/apps/gaussian/g09D01/g09/l303.exe)
 DipDrv:  MaxL=1.
 Leave Link  303 at Sat Jul 23 16:46:43 2016, MaxMem=  3221225472 cpu:         7.9
 (Enter /cm/shared/apps/gaussian/g09D01/g09/l401.exe)
 ExpMin= 9.52D-02 ExpMax= 2.70D+04 ExpMxC= 9.22D+02 IAcc=2 IRadAn=         4 AccDes= 0.00D+00
 Harris functional with IExCor= 4639 and IRadAn=       4 diagonalized for initial guess.
 HarFok:  IExCor= 4639 AccDes= 0.00D+00 IRadAn=         4 IDoV= 1 UseB2=F ITyADJ=14
 ICtDFT=  3500011 ScaDFX=  1.000000  1.000000  1.000000  1.000000
 FoFCou: FMM=F IPFlag=           0 FMFlag=      100000 FMFlg1=           0
         NFxFlg=           0 DoJE=T BraDBF=F KetDBF=T FulRan=T
         wScrn=  0.000000 ICntrl=     500 IOpCl=  0 I1Cent=   200000004 NGrid=           0
         NMat0=    1 NMatS0=      1 NMatT0=    0 NMatD0=    1 NMtDS0=    0 NMtDT0=    0
 Symmetry not used in FoFCou.
 Harris En= -626.801338384068    
 JPrj=0 DoOrth=F DoCkMO=F.
 Leave Link  401 at Sat Jul 23 16:46:47 2016, MaxMem=  3221225472 cpu:       122.3
 (Enter /cm/shared/apps/gaussian/g09D01/g09/l502.exe)
 Closed shell SCF:
 Using DIIS extrapolation, IDIIS=  1040.
 Two-electron integral symmetry not used.
 IVT=     1398902 IEndB=     1398902 NGot=  3221225472 MDV=  3220295467
 LenX=  3220295467 LenY=  3219843211
 Requested convergence on RMS density matrix=1.00D-08 within 128 cycles.
 Requested convergence on MAX density matrix=1.00D-06.
 Requested convergence on             energy=1.00D-06.
 No special actions if energy rises.
 Fock matrices will be formed incrementally for  20 cycles.

 Cycle   1  Pass 1  IDiag  1:
 FoFJK:  IHMeth= 1 ICntrl=       0 DoSepK=T KAlg= 0 I1Cent=   0 FoldK=F
 IRaf=         1 NMat=   1 IRICut=       1 DoRegI=T DoRafI=F ISym2E= 0.
 FoFCou: FMM=F IPFlag=           0 FMFlag=      100000 FMFlg1=           0
         NFxFlg=           0 DoJE=T BraDBF=F KetDBF=F FulRan=T
         wScrn=  0.000000 ICntrl=     500 IOpCl=  0 I1Cent=           0 NGrid=           0
         NMat0=    1 NMatS0=      1 NMatT0=    0 NMatD0=    1 NMtDS0=    0 NMtDT0=    0
 Symmetry not used in FoFCou.
 Inv3:  Mode=1 IEnd=    15214512.
 Iteration    1 A*A^-1 deviation from unit magnitude is 6.55D-15 for    311.
 Iteration    1 A*A^-1 deviation from orthogonality  is 4.76D-15 for   2164    301.
 Iteration    1 A^-1*A deviation from unit magnitude is 6.66D-15 for    130.
 Iteration    1 A^-1*A deviation from orthogonality  is 7.01D-14 for   1175   1124.
 E= -656.305863575526    
 DIIS: error= 3.15D-02 at cycle   1 NSaved=   1.
 NSaved= 1 IEnMin= 1 EnMin= -656.305863575526     IErMin= 1 ErrMin= 3.15D-02
 ErrMax= 3.15D-02  0.00D+00 EMaxC= 1.00D-01 BMatC= 1.41D+00 BMatP= 1.41D+00
 IDIUse=3 WtCom= 6.85D-01 WtEn= 3.15D-01
 Coeff-Com:  0.100D+01
 Coeff-En:   0.100D+01
 Coeff:      0.100D+01
 Gap=     0.467 Goal=   None    Shift=    0.000
 GapD=    0.467 DampG=2.000 DampE=0.500 DampFc=1.0000 IDamp=-1.
 RMSDP=2.24D-03 MaxDP=2.29D-01              OVMax= 5.96D-02

 Cycle   2  Pass 1  IDiag  1:
 RMSU=  2.00D-03    CP:  8.67D-01
 E= -656.441830240640     Delta-E=       -0.135966665114 Rises=F Damp=F
 DIIS: error= 5.62D-03 at cycle   2 NSaved=   2.
 NSaved= 2 IEnMin= 2 EnMin= -656.441830240640     IErMin= 2 ErrMin= 5.62D-03
 ErrMax= 5.62D-03  0.00D+00 EMaxC= 1.00D-01 BMatC= 5.75D-02 BMatP= 1.41D+00
 IDIUse=3 WtCom= 9.44D-01 WtEn= 5.62D-02
 Coeff-Com:  0.103D+00 0.897D+00
 Coeff-En:   0.000D+00 0.100D+01
 Coeff:      0.969D-01 0.903D+00
 Gap=     0.385 Goal=   None    Shift=    0.000
 RMSDP=1.01D-03 MaxDP=1.11D-01 DE=-1.36D-01 OVMax= 6.80D-02

 Cycle   3  Pass 1  IDiag  1:
 RMSU=  7.96D-04    CP:  8.93D-01  7.05D-01
 E= -656.454878508276     Delta-E=       -0.013048267636 Rises=F Damp=F
 DIIS: error= 5.48D-03 at cycle   3 NSaved=   3.
 NSaved= 3 IEnMin= 3 EnMin= -656.454878508276     IErMin= 3 ErrMin= 5.48D-03
 ErrMax= 5.48D-03  0.00D+00 EMaxC= 1.00D-01 BMatC= 3.93D-02 BMatP= 5.75D-02
 IDIUse=3 WtCom= 9.45D-01 WtEn= 5.48D-02
 Coeff-Com:  0.255D-01 0.460D+00 0.514D+00
 Coeff-En:   0.000D+00 0.407D+00 0.593D+00
 Coeff:      0.241D-01 0.457D+00 0.518D+00
 Gap=     0.409 Goal=   None    Shift=    0.000
 RMSDP=6.12D-04 MaxDP=8.66D-02 DE=-1.30D-02 OVMax= 3.23D-02

 Cycle   4  Pass 1  IDiag  1:
 RMSU=  2.25D-04    CP:  8.67D-01  8.97D-01  5.37D-01
 E= -656.483957496296     Delta-E=       -0.029078988021 Rises=F Damp=F
 DIIS: error= 4.81D-04 at cycle   4 NSaved=   4.
 NSaved= 4 IEnMin= 4 EnMin= -656.483957496296     IErMin= 4 ErrMin= 4.81D-04
 ErrMax= 4.81D-04  0.00D+00 EMaxC= 1.00D-01 BMatC= 3.94D-04 BMatP= 3.93D-02
 IDIUse=3 WtCom= 9.95D-01 WtEn= 4.81D-03
 Coeff-Com:  0.886D-02 0.158D+00 0.203D+00 0.631D+00
 Coeff-En:   0.000D+00 0.000D+00 0.000D+00 0.100D+01
 Coeff:      0.882D-02 0.157D+00 0.202D+00 0.632D+00
 Gap=     0.365 Goal=   None    Shift=    0.000
 RMSDP=4.90D-05 MaxDP=2.83D-03 DE=-2.91D-02 OVMax= 2.76D-03

 Cycle   5  Pass 1  IDiag  1:
 RMSU=  3.89D-05    CP:  8.67D-01  8.99D-01  5.65D-01  9.14D-01
 E= -656.484256800334     Delta-E=       -0.000299304037 Rises=F Damp=F
 DIIS: error= 1.38D-04 at cycle   5 NSaved=   5.
 NSaved= 5 IEnMin= 5 EnMin= -656.484256800334     IErMin= 5 ErrMin= 1.38D-04
 ErrMax= 1.38D-04  0.00D+00 EMaxC= 1.00D-01 BMatC= 1.46D-05 BMatP= 3.94D-04
 IDIUse=3 WtCom= 9.99D-01 WtEn= 1.38D-03
 Coeff-Com: -0.153D-02-0.248D-01-0.191D-01 0.113D+00 0.932D+00
 Coeff-En:   0.000D+00 0.000D+00 0.000D+00 0.000D+00 0.100D+01
 Coeff:     -0.153D-02-0.248D-01-0.190D-01 0.113D+00 0.932D+00
 Gap=     0.365 Goal=   None    Shift=    0.000
 RMSDP=3.15D-05 MaxDP=2.93D-03 DE=-2.99D-04 OVMax= 1.11D-03

 Cycle   6  Pass 1  IDiag  1:
 RMSU=  1.17D-05    CP:  8.65D-01  9.07D-01  5.74D-01  9.95D-01  1.31D+00
 E= -656.484274258016     Delta-E=       -0.000017457683 Rises=F Damp=F
 DIIS: error= 2.91D-05 at cycle   6 NSaved=   6.
 NSaved= 6 IEnMin= 6 EnMin= -656.484274258016     IErMin= 6 ErrMin= 2.91D-05
 ErrMax= 2.91D-05  0.00D+00 EMaxC= 1.00D-01 BMatC= 1.51D-06 BMatP= 1.46D-05
 IDIUse=1 WtCom= 1.00D+00 WtEn= 0.00D+00
 Coeff-Com: -0.903D-03-0.149D-01-0.142D-01 0.196D-01 0.337D+00 0.674D+00
 Coeff:     -0.903D-03-0.149D-01-0.142D-01 0.196D-01 0.337D+00 0.674D+00
 Gap=     0.365 Goal=   None    Shift=    0.000
 RMSDP=6.26D-06 MaxDP=3.22D-04 DE=-1.75D-05 OVMax= 3.45D-04

 Cycle   7  Pass 1  IDiag  1:
 RMSU=  3.59D-06    CP:  8.65D-01  9.07D-01  5.75D-01  1.01D+00  1.37D+00
                    CP:  1.06D+00
 E= -656.484275894828     Delta-E=       -0.000001636811 Rises=F Damp=F
 DIIS: error= 1.15D-05 at cycle   7 NSaved=   7.
 NSaved= 7 IEnMin= 7 EnMin= -656.484275894828     IErMin= 7 ErrMin= 1.15D-05
 ErrMax= 1.15D-05  0.00D+00 EMaxC= 1.00D-01 BMatC= 1.47D-07 BMatP= 1.51D-06
 IDIUse=1 WtCom= 1.00D+00 WtEn= 0.00D+00
 Coeff-Com: -0.605D-04-0.122D-02-0.177D-02-0.915D-02-0.328D-01 0.196D+00
 Coeff-Com:  0.849D+00
 Coeff:     -0.605D-04-0.122D-02-0.177D-02-0.915D-02-0.328D-01 0.196D+00
 Coeff:      0.849D+00
 Gap=     0.365 Goal=   None    Shift=    0.000
 RMSDP=2.98D-06 MaxDP=1.66D-04 DE=-1.64D-06 OVMax= 1.83D-04

 Cycle   8  Pass 1  IDiag  1:
 RMSU=  1.22D-06    CP:  8.65D-01  9.08D-01  5.76D-01  1.01D+00  1.41D+00
                    CP:  1.18D+00  1.14D+00
 E= -656.484276110366     Delta-E=       -0.000000215539 Rises=F Damp=F
 DIIS: error= 4.23D-06 at cycle   8 NSaved=   8.
 NSaved= 8 IEnMin= 8 EnMin= -656.484276110366     IErMin= 8 ErrMin= 4.23D-06
 ErrMax= 4.23D-06  0.00D+00 EMaxC= 1.00D-01 BMatC= 1.69D-08 BMatP= 1.47D-07
 IDIUse=1 WtCom= 1.00D+00 WtEn= 0.00D+00
 Coeff-Com:  0.430D-04 0.599D-03 0.408D-03-0.502D-02-0.372D-01 0.235D-01
 Coeff-Com:  0.310D+00 0.707D+00
 Coeff:      0.430D-04 0.599D-03 0.408D-03-0.502D-02-0.372D-01 0.235D-01
 Coeff:      0.310D+00 0.707D+00
 Gap=     0.365 Goal=   None    Shift=    0.000
 RMSDP=7.53D-07 MaxDP=4.54D-05 DE=-2.16D-07 OVMax= 6.05D-05

 Cycle   9  Pass 1  IDiag  1:
 RMSU=  3.50D-07    CP:  8.65D-01  9.08D-01  5.76D-01  1.01D+00  1.42D+00
                    CP:  1.21D+00  1.25D+00  1.12D+00
 E= -656.484276133832     Delta-E=       -0.000000023466 Rises=F Damp=F
 DIIS: error= 1.68D-06 at cycle   9 NSaved=   9.
 NSaved= 9 IEnMin= 9 EnMin= -656.484276133832     IErMin= 9 ErrMin= 1.68D-06
 ErrMax= 1.68D-06  0.00D+00 EMaxC= 1.00D-01 BMatC= 1.73D-09 BMatP= 1.69D-08
 IDIUse=1 WtCom= 1.00D+00 WtEn= 0.00D+00
 Coeff-Com:  0.178D-04 0.311D-03 0.376D-03-0.196D-03-0.530D-02-0.182D-01
 Coeff-Com: -0.353D-01 0.177D+00 0.882D+00
 Coeff:      0.178D-04 0.311D-03 0.376D-03-0.196D-03-0.530D-02-0.182D-01
 Coeff:     -0.353D-01 0.177D+00 0.882D+00
 Gap=     0.365 Goal=   None    Shift=    0.000
 RMSDP=3.20D-07 MaxDP=1.83D-05 DE=-2.35D-08 OVMax= 2.59D-05

 Cycle  10  Pass 1  IDiag  1:
 RMSU=  1.18D-07    CP:  8.65D-01  9.08D-01  5.76D-01  1.01D+00  1.42D+00
                    CP:  1.21D+00  1.29D+00  1.25D+00  1.30D+00
 E= -656.484276137466     Delta-E=       -0.000000003634 Rises=F Damp=F
 DIIS: error= 6.54D-07 at cycle  10 NSaved=  10.
 NSaved=10 IEnMin=10 EnMin= -656.484276137466     IErMin=10 ErrMin= 6.54D-07
 ErrMax= 6.54D-07  0.00D+00 EMaxC= 1.00D-01 BMatC= 2.41D-10 BMatP= 1.73D-09
 IDIUse=1 WtCom= 1.00D+00 WtEn= 0.00D+00
 Coeff-Com: -0.832D-06 0.499D-05 0.561D-04 0.618D-03 0.360D-02-0.770D-02
 Coeff-Com: -0.530D-01-0.405D-01 0.266D+00 0.831D+00
 Coeff:     -0.832D-06 0.499D-05 0.561D-04 0.618D-03 0.360D-02-0.770D-02
 Coeff:     -0.530D-01-0.405D-01 0.266D+00 0.831D+00
 Gap=     0.365 Goal=   None    Shift=    0.000
 RMSDP=1.02D-07 MaxDP=8.21D-06 DE=-3.63D-09 OVMax= 1.19D-05

 Cycle  11  Pass 1  IDiag  1:
 RMSU=  4.82D-08    CP:  8.65D-01  9.08D-01  5.76D-01  1.01D+00  1.42D+00
                    CP:  1.22D+00  1.30D+00  1.30D+00  1.42D+00  1.17D+00
 E= -656.484276138060     Delta-E=       -0.000000000594 Rises=F Damp=F
 DIIS: error= 3.80D-07 at cycle  11 NSaved=  11.
 NSaved=11 IEnMin=11 EnMin= -656.484276138060     IErMin=11 ErrMin= 3.80D-07
 ErrMax= 3.80D-07  0.00D+00 EMaxC= 1.00D-01 BMatC= 4.89D-11 BMatP= 2.41D-10
 IDIUse=1 WtCom= 1.00D+00 WtEn= 0.00D+00
 Coeff-Com: -0.239D-05-0.361D-04-0.252D-04 0.307D-03 0.213D-02-0.782D-03
 Coeff-Com: -0.176D-01-0.405D-01-0.120D-01 0.333D+00 0.736D+00
 Coeff:     -0.239D-05-0.361D-04-0.252D-04 0.307D-03 0.213D-02-0.782D-03
 Coeff:     -0.176D-01-0.405D-01-0.120D-01 0.333D+00 0.736D+00
 Gap=     0.365 Goal=   None    Shift=    0.000
 RMSDP=3.14D-08 MaxDP=1.40D-06 DE=-5.94D-10 OVMax= 5.44D-06

 Cycle  12  Pass 1  IDiag  1:
 RMSU=  2.00D-08    CP:  8.65D-01  9.08D-01  5.76D-01  1.01D+00  1.42D+00
                    CP:  1.22D+00  1.30D+00  1.31D+00  1.44D+00  1.27D+00
                    CP:  1.22D+00
 E= -656.484276138130     Delta-E=       -0.000000000070 Rises=F Damp=F
 DIIS: error= 1.19D-07 at cycle  12 NSaved=  12.
 NSaved=12 IEnMin=12 EnMin= -656.484276138130     IErMin=12 ErrMin= 1.19D-07
 ErrMax= 1.19D-07  0.00D+00 EMaxC= 1.00D-01 BMatC= 4.49D-12 BMatP= 4.89D-11
 IDIUse=1 WtCom= 1.00D+00 WtEn= 0.00D+00
 Coeff-Com: -0.204D-06-0.591D-05-0.136D-04-0.403D-04-0.285D-03 0.115D-02
 Coeff-Com:  0.582D-02 0.865D-03-0.421D-01-0.816D-01 0.134D+00 0.982D+00
 Coeff:     -0.204D-06-0.591D-05-0.136D-04-0.403D-04-0.285D-03 0.115D-02
 Coeff:      0.582D-02 0.865D-03-0.421D-01-0.816D-01 0.134D+00 0.982D+00
 Gap=     0.365 Goal=   None    Shift=    0.000
 RMSDP=1.52D-08 MaxDP=7.43D-07 DE=-7.00D-11 OVMax= 2.11D-06

 Cycle  13  Pass 1  IDiag  1:
 RMSU=  8.27D-09    CP:  8.65D-01  9.08D-01  5.76D-01  1.01D+00  1.42D+00
                    CP:  1.22D+00  1.29D+00  1.30D+00  1.44D+00  1.30D+00
                    CP:  1.39D+00  1.20D+00
 E= -656.484276138187     Delta-E=       -0.000000000057 Rises=F Damp=F
 DIIS: error= 5.03D-08 at cycle  13 NSaved=  13.
 NSaved=13 IEnMin=13 EnMin= -656.484276138187     IErMin=13 ErrMin= 5.03D-08
 ErrMax= 5.03D-08  0.00D+00 EMaxC= 1.00D-01 BMatC= 1.17D-12 BMatP= 4.49D-12
 IDIUse=1 WtCom= 1.00D+00 WtEn= 0.00D+00
 Coeff-Com:  0.217D-06 0.236D-05-0.204D-05-0.556D-04-0.392D-03 0.579D-03
 Coeff-Com:  0.464D-02 0.516D-02-0.162D-01-0.812D-01-0.402D-01 0.420D+00
 Coeff-Com:  0.708D+00
 Coeff:      0.217D-06 0.236D-05-0.204D-05-0.556D-04-0.392D-03 0.579D-03
 Coeff:      0.464D-02 0.516D-02-0.162D-01-0.812D-01-0.402D-01 0.420D+00
 Coeff:      0.708D+00
 Gap=     0.365 Goal=   None    Shift=    0.000
 RMSDP=4.81D-09 MaxDP=2.42D-07 DE=-5.73D-11 OVMax= 7.88D-07

 Error on total polarization charges =  0.01570
 SCF Done:  E(RwB97XD) =  -656.484276138     A.U. after   13 cycles
            NFock= 13  Conv=0.48D-08     -V/T= 2.0049
 KE= 6.532713809879D+02 PE=-3.652799626278D+03 EE= 1.279738232507D+03
 Leave Link  502 at Sat Jul 23 16:53:32 2016, MaxMem=  3221225472 cpu:     12459.3
 (Enter /cm/shared/apps/gaussian/g09D01/g09/l801.exe)
 DoSCS=F DFT=T ScalE2(SS,OS)=  1.000000  1.000000
 ExpMin= 9.52D-02 ExpMax= 2.70D+04 ExpMxC= 9.22D+02 IAcc=3 IRadAn=         5 AccDes= 0.00D+00
 HarFok:  IExCor=  205 AccDes= 0.00D+00 IRadAn=         5 IDoV=-2 UseB2=F ITyADJ=14
 ICtDFT= 12500011 ScaDFX=  1.000000  1.000000  1.000000  1.000000
 Largest valence mixing into a core orbital is  6.77D-05
 Largest core mixing into a valence orbital is  1.96D-05
 Range of M.O.s used for correlation:    17   592
 NBasis=   592 NAE=    57 NBE=    57 NFC=    16 NFV=     0
 NROrb=    576 NOA=    41 NOB=    41 NVA=   535 NVB=   535

 **** Warning!!: The largest alpha MO coefficient is  0.55064737D+02

 Leave Link  801 at Sat Jul 23 16:53:33 2016, MaxMem=  3221225472 cpu:        49.9
 (Enter /cm/shared/apps/gaussian/g09D01/g09/l914.exe)
 RHF ground state
 MDV=  3221225472 DFT=T DoStab=F Mixed=T DoRPA=T DoScal=F NonHer=T
 Would need an additional         93074000000 words for in-memory AO integral storage.
 NEqPCM:  Using equilibrium solvation (IEInf=0, Eps=  24.8520, EpsInf=   1.8526)
 Making orbital integer symmetry assigments:
    64 initial guesses have been made.
 Convergence on wavefunction:    0.000001000000000
 Davidson Disk Diagonalization:  ConvIn= 1.00D-06 SkipCon=T Conv= 1.00D-06.
 Max sub-space:   256 roots to seek:    64 dimension of matrix:        43870
 Iteration     1 Dimension    64 NMult     0 NNew     64
 CISAX will form    64 AO SS matrices at one time.
 NMat=    64 NSing=    64 JSym2X= 0.
 FoFJK:  IHMeth= 1 ICntrl=       0 DoSepK=T KAlg= 0 I1Cent=   0 FoldK=F
 IRaf=         1 NMat= 128 IRICut=       1 DoRegI=T DoRafI=F ISym2E= 0.
 FoFCou: FMM=F IPFlag=           0 FMFlag=      100000 FMFlg1=           0
         NFxFlg=           0 DoJE=F BraDBF=F KetDBF=F FulRan=T
         wScrn=  0.000000 ICntrl=     500 IOpCl=  0 I1Cent=           0 NGrid=           0
         NMat0=   64 NMatS0=     64 NMatT0=    0 NMatD0=   64 NMtDS0=    0 NMtDT0=    0
 Symmetry not used in FoFCou.
 New state      2 was old state     13
 New state      3 was old state      2
 New state      5 was old state      3
 New state      6 was old state      8
 New state      7 was old state      9
 New state      8 was old state      5
 New state      9 was old state      6
 New state     10 was old state      7
 New state     12 was old state     10
 New state     13 was old state     14
 New state     14 was old state     12
 New state     15 was old state     17
 New state     16 was old state     20
 Excitation Energies [eV] at current iteration:
 Root      1 :     5.419207514187242
 Root      2 :     5.571042204930166
 Root      3 :     6.509123768894596
 Root      4 :     6.599248741330008
 Root      5 :     6.739699920495689
 Root      6 :     6.996090313461011
 Root      7 :     7.122212895757801
 Root      8 :     7.144574494474314
 Root      9 :     7.187471711640359
 Root     10 :     7.275450037478747
 Root     11 :     7.439476812154386
 Root     12 :     7.453260547455798
 Root     13 :     7.497019416548043
 Root     14 :     7.511370212068076
 Root     15 :     7.610683969366144
 Root     16 :     7.774405156656986
 Root     17 :     7.846358215764719
 Root     18 :     7.974139517152496
 Root     19 :     7.982740226646300
 Root     20 :     8.004486042245061
 Root     21 :     8.054954506226487
 Root     22 :     8.081939482726112
 Root     23 :     8.118218249043785
 Root     24 :     8.168127438054468
 Root     25 :     8.189082298297167
 Root     26 :     8.237991959480183
 Root     27 :     8.270189480302466
 Root     28 :     8.308022106737630
 Root     29 :     8.372189173459128
 Root     30 :     8.498765975252583
 Root     31 :     8.581734865563558
 Root     32 :     8.598591095111098
 Root     33 :     8.711976179588131
 Root     34 :     8.790782296481968
 Root     35 :     8.828545196325496
 Root     36 :     8.920165694875518
 Root     37 :     9.010417652775194
 Root     38 :     9.106527019901428
 Root     39 :     9.128877221856188
 Root     40 :     9.177888863140591
 Root     41 :     9.198791843644104
 Root     42 :     9.271552547545474
 Root     43 :     9.385904098827050
 Root     44 :     9.468436588272878
 Root     45 :     9.512853176857922
 Root     46 :     9.594789024316210
 Root     47 :     9.634919803962074
 Root     48 :     9.690059542661789
 Root     49 :     9.741884308189864
 Root     50 :     9.776564692309268
 Root     51 :     9.799020514421102
 Root     52 :     9.900066354737564
 Root     53 :     9.906183089169554
 Root     54 :     9.963755681990971
 Root     55 :    10.011905403779600
 Root     56 :    10.164829422725370
 Root     57 :    10.248991589437030
 Root     58 :    10.299710477969380
 Root     59 :    10.319575521178520
 Root     60 :    10.418905778325620
 Root     61 :    10.452251349207570
 Root     62 :    10.521308808374760
 Root     63 :    10.761335900260090
 Root     64 :    10.795647297315870
 Iteration     2 Dimension    96 NMult    64 NNew     32
 CISAX will form    32 AO SS matrices at one time.
 NMat=    32 NSing=    32 JSym2X= 0.
 Root      1 not converged, maximum delta is    0.026623721854807
 Root      2 not converged, maximum delta is    0.013613476081430
 Root      3 not converged, maximum delta is    0.173866699527006
 New state      4 was old state      5
 Root      4 not converged, maximum delta is    0.101064378013550
 New state      5 was old state      8
 Root      5 not converged, maximum delta is    0.330344148106222
 New state      6 was old state      4
 Root      6 not converged, maximum delta is    0.311038703989550
 New state      7 was old state     14
 Root      7 not converged, maximum delta is    0.422572882805430
 New state      8 was old state     13
 Root      8 not converged, maximum delta is    0.214553384172211
 New state      9 was old state     15
 Root      9 not converged, maximum delta is    0.325310484355392
 New state     10 was old state      6
 Root     10 not converged, maximum delta is    0.128959448339051
 New state     11 was old state      7
 Root     11 not converged, maximum delta is    0.229779018021879
 New state     12 was old state      9
 Root     12 not converged, maximum delta is    0.320979964850691
 New state     13 was old state     10
 Root     13 not converged, maximum delta is    0.238974933341721
 New state     14 was old state     12
 Root     14 not converged, maximum delta is    0.058688424796988
 New state     15 was old state     11
 Root     15 not converged, maximum delta is    0.291460222312359
 Root     16 not converged, maximum delta is    0.140314386854006
 Excitation Energies [eV] at current iteration:
 Root      1 :     5.281770819919219   Change is   -0.137436694268024
 Root      2 :     5.454986732947007   Change is   -0.116055471983159
 Root      3 :     5.843099379466192   Change is   -0.666024389428404
 Root      4 :     6.038039587694992   Change is   -0.701660332800697
 Root      5 :     6.345353347572748   Change is   -0.799221146901567
 Root      6 :     6.425873293825116   Change is   -0.173375447504892
 Root      7 :     6.437091155342443   Change is   -1.074279056725633
 Root      8 :     6.592516831403676   Change is   -0.904502585144367
 Root      9 :     6.721098665627614   Change is   -0.889585303738529
 Root     10 :     6.916549453766134   Change is   -0.079540859694877
 Root     11 :     7.046004799069671   Change is   -0.076208096688130
 Root     12 :     7.134240080185045   Change is   -0.053231631455315
 Root     13 :     7.172090298649926   Change is   -0.103359738828822
 Root     14 :     7.380513066288041   Change is   -0.072747481167757
 Root     15 :     7.405881175254032   Change is   -0.033595636900354
 Root     16 :     7.489588045585760   Change is   -0.284817111071226
 Iteration     3 Dimension   128 NMult    96 NNew     32
 CISAX will form    32 AO SS matrices at one time.
 NMat=    32 NSing=    32 JSym2X= 0.
 Root      1 not converged, maximum delta is    0.004575322682040
 Root      2 not converged, maximum delta is    0.002250185470071
 Root      3 not converged, maximum delta is    0.004791631304617
 Root      4 not converged, maximum delta is    0.004236815301571
 Root      5 not converged, maximum delta is    0.011805149977961
 Root      6 not converged, maximum delta is    0.175858493401378
 Root      7 not converged, maximum delta is    0.126523540384883
 Root      8 not converged, maximum delta is    0.009136408284455
 Root      9 not converged, maximum delta is    0.018021620511399
 Root     10 not converged, maximum delta is    0.012073313112569
 Root     11 not converged, maximum delta is    0.019757869538664
 Root     12 not converged, maximum delta is    0.018789253534604
 Root     13 not converged, maximum delta is    0.004495095464904
 Root     14 not converged, maximum delta is    0.007508040817465
 Root     15 not converged, maximum delta is    0.013065033077585
 Root     16 not converged, maximum delta is    0.026574786274270
 Excitation Energies [eV] at current iteration:
 Root      1 :     5.276763933597953   Change is   -0.005006886321265
 Root      2 :     5.451599474724944   Change is   -0.003387258222064
 Root      3 :     5.828246967362742   Change is   -0.014852412103450
 Root      4 :     6.023249836229138   Change is   -0.014789751465854
 Root      5 :     6.317047527484653   Change is   -0.028305820088095
 Root      6 :     6.394866570396017   Change is   -0.031006723429100
 Root      7 :     6.425406437692991   Change is   -0.011684717649453
 Root      8 :     6.558654320404547   Change is   -0.033862510999128
 Root      9 :     6.671042947303743   Change is   -0.050055718323871
 Root     10 :     6.909711403910093   Change is   -0.006838049856041
 Root     11 :     7.033403728399652   Change is   -0.012601070670018
 Root     12 :     7.125163620291683   Change is   -0.009076459893362
 Root     13 :     7.168827235692870   Change is   -0.003263062957056
 Root     14 :     7.377527476760198   Change is   -0.002985589527843
 Root     15 :     7.400576226053923   Change is   -0.005304949200108
 Root     16 :     7.468955588543461   Change is   -0.020632457042299
 Iteration     4 Dimension   160 NMult   128 NNew     32
 CISAX will form    32 AO SS matrices at one time.
 NMat=    32 NSing=    32 JSym2X= 0.
 Root      1 not converged, maximum delta is    0.001172846020695
 Root      2 not converged, maximum delta is    0.000676335656445
 Root      3 not converged, maximum delta is    0.001013569722662
 Root      4 not converged, maximum delta is    0.001055115988202
 Root      5 not converged, maximum delta is    0.000835503644830
 Root      6 not converged, maximum delta is    0.001460636643393
 Root      7 not converged, maximum delta is    0.001394755529909
 Root      8 not converged, maximum delta is    0.002330599850745
 Root      9 not converged, maximum delta is    0.002601530774638
 Root     10 not converged, maximum delta is    0.001487203376142
 Root     11 not converged, maximum delta is    0.005215763561594
 Root     12 not converged, maximum delta is    0.003182396930529
 Root     13 not converged, maximum delta is    0.001043012647403
 Root     14 not converged, maximum delta is    0.004369804797701
 Root     15 not converged, maximum delta is    0.003951158308321
 Root     16 not converged, maximum delta is    0.015618785208352
 Excitation Energies [eV] at current iteration:
 Root      1 :     5.276540770675519   Change is   -0.000223162922434
 Root      2 :     5.451405909186362   Change is   -0.000193565538581
 Root      3 :     5.827258310349650   Change is   -0.000988657013093
 Root      4 :     6.022361959161644   Change is   -0.000887877067494
 Root      5 :     6.315601001461168   Change is   -0.001446526023485
 Root      6 :     6.393415548497428   Change is   -0.001451021898589
 Root      7 :     6.424654888356812   Change is   -0.000751549336179
 Root      8 :     6.556597188449488   Change is   -0.002057131955059
 Root      9 :     6.665994850127146   Change is   -0.005048097176597
 Root     10 :     6.909032540173923   Change is   -0.000678863736169
 Root     11 :     7.031829342782657   Change is   -0.001574385616995
 Root     12 :     7.124208798505525   Change is   -0.000954821786158
 Root     13 :     7.168514849155319   Change is   -0.000312386537552
 Root     14 :     7.377007969900010   Change is   -0.000519506860188
 Root     15 :     7.399954612431946   Change is   -0.000621613621977
 Root     16 :     7.464619047859869   Change is   -0.004336540683592
 Iteration     5 Dimension   192 NMult   160 NNew     32
 CISAX will form    32 AO SS matrices at one time.
 NMat=    32 NSing=    32 JSym2X= 0.
 Root      1 not converged, maximum delta is    0.000292336876200
 Root      2 not converged, maximum delta is    0.000238377707660
 Root      3 not converged, maximum delta is    0.000264791475266
 Root      4 not converged, maximum delta is    0.000195349094195
 Root      5 not converged, maximum delta is    0.000283598966702
 Root      6 not converged, maximum delta is    0.000416246437480
 Root      7 not converged, maximum delta is    0.000461021187355
 Root      8 not converged, maximum delta is    0.000516577294520
 Root      9 not converged, maximum delta is    0.000839633128475
 Root     10 not converged, maximum delta is    0.000409561953143
 Root     11 not converged, maximum delta is    0.001303294465014
 Root     12 not converged, maximum delta is    0.000756713377899
 Root     13 not converged, maximum delta is    0.000245507066763
 Root     14 not converged, maximum delta is    0.001810748816722
 Root     15 not converged, maximum delta is    0.000926366873318
 Root     16 not converged, maximum delta is    0.004931016613498
 Excitation Energies [eV] at current iteration:
 Root      1 :     5.276530243344618   Change is   -0.000010527330902
 Root      2 :     5.451396647118580   Change is   -0.000009262067782
 Root      3 :     5.827210282674941   Change is   -0.000048027674708
 Root      4 :     6.022316847863447   Change is   -0.000045111298196
 Root      5 :     6.315521601304171   Change is   -0.000079400156996
 Root      6 :     6.393344599849292   Change is   -0.000070948648136
 Root      7 :     6.424605139330329   Change is   -0.000049749026483
 Root      8 :     6.556478291210003   Change is   -0.000118897239486
 Root      9 :     6.665693911335084   Change is   -0.000300938792062
 Root     10 :     6.908980196925384   Change is   -0.000052343248539
 Root     11 :     7.031683729944740   Change is   -0.000145612837917
 Root     12 :     7.124127665869668   Change is   -0.000081132635857
 Root     13 :     7.168495640852854   Change is   -0.000019208302465
 Root     14 :     7.376931776898526   Change is   -0.000076193001484
 Root     15 :     7.399883650957596   Change is   -0.000070961474350
 Root     16 :     7.463980612039899   Change is   -0.000638435819970
 Iteration     6 Dimension   224 NMult   192 NNew     32
 CISAX will form    32 AO SS matrices at one time.
 NMat=    32 NSing=    32 JSym2X= 0.
 Root      1 not converged, maximum delta is    0.000042314428493
 Root      2 not converged, maximum delta is    0.000059606884825
 Root      3 not converged, maximum delta is    0.000052721775028
 Root      4 not converged, maximum delta is    0.000046581597993
 Root      5 not converged, maximum delta is    0.000078657531167
 Root      6 not converged, maximum delta is    0.000113972183570
 Root      7 not converged, maximum delta is    0.000110402041071
 Root      8 not converged, maximum delta is    0.000158487718153
 Root      9 not converged, maximum delta is    0.000260506332027
 Root     10 not converged, maximum delta is    0.000133915488595
 Root     11 not converged, maximum delta is    0.000299639668007
 Root     12 not converged, maximum delta is    0.000203671153209
 Root     13 not converged, maximum delta is    0.000104063226070
 Root     14 not converged, maximum delta is    0.000439783627264
 Root     15 not converged, maximum delta is    0.000272565671604
 Root     16 not converged, maximum delta is    0.001160565891695
 Excitation Energies [eV] at current iteration:
 Root      1 :     5.276529783400748   Change is   -0.000000459943869
 Root      2 :     5.451396182683897   Change is   -0.000000464434683
 Root      3 :     5.827208195402291   Change is   -0.000002087272651
 Root      4 :     6.022314582736305   Change is   -0.000002265127142
 Root      5 :     6.315518168407866   Change is   -0.000003432896305
 Root      6 :     6.393340867239677   Change is   -0.000003732609616
 Root      7 :     6.424602034534749   Change is   -0.000003104795580
 Root      8 :     6.556470955947853   Change is   -0.000007335262149
 Root      9 :     6.665676176479082   Change is   -0.000017734856002
 Root     10 :     6.908975988334288   Change is   -0.000004208591096
 Root     11 :     7.031670440775026   Change is   -0.000013289169714
 Root     12 :     7.124120610375845   Change is   -0.000007055493824
 Root     13 :     7.168494065663584   Change is   -0.000001575189269
 Root     14 :     7.376922957827083   Change is   -0.000008819071443
 Root     15 :     7.399875764272014   Change is   -0.000007886685582
 Root     16 :     7.463910865656855   Change is   -0.000069746383044
 Iteration     7 Dimension   256 NMult   224 NNew     32
 CISAX will form    32 AO SS matrices at one time.
 NMat=    32 NSing=    32 JSym2X= 0.
 Root      1 not converged, maximum delta is    0.000005582804096
 Root      2 not converged, maximum delta is    0.000007248352245
 Root      3 not converged, maximum delta is    0.000011147228507
 Root      4 not converged, maximum delta is    0.000008255462748
 Root      5 not converged, maximum delta is    0.000021225941503
 Root      6 not converged, maximum delta is    0.000020547577471
 Root      7 not converged, maximum delta is    0.000027208337984
 Root      8 not converged, maximum delta is    0.000044416632039
 Root      9 not converged, maximum delta is    0.000055542755755
 Root     10 not converged, maximum delta is    0.000029104164014
 Root     11 not converged, maximum delta is    0.000059165969963
 Root     12 not converged, maximum delta is    0.000042945035786
 Root     13 not converged, maximum delta is    0.000054253814326
 Root     14 not converged, maximum delta is    0.000104085004774
 Root     15 not converged, maximum delta is    0.000062479250039
 Root     16 not converged, maximum delta is    0.000267547893661
 Excitation Energies [eV] at current iteration:
 Root      1 :     5.276529767633542   Change is   -0.000000015767206
 Root      2 :     5.451396163420100   Change is   -0.000000019263796
 Root      3 :     5.827208101888417   Change is   -0.000000093513873
 Root      4 :     6.022314480502178   Change is   -0.000000102234127
 Root      5 :     6.315517974578996   Change is   -0.000000193828871
 Root      6 :     6.393340657719940   Change is   -0.000000209519737
 Root      7 :     6.424601855370175   Change is   -0.000000179164574
 Root      8 :     6.556470497822664   Change is   -0.000000458125189
 Root      9 :     6.665674987349210   Change is   -0.000001189129872
 Root     10 :     6.908975709823235   Change is   -0.000000278511053
 Root     11 :     7.031669607564639   Change is   -0.000000833210388
 Root     12 :     7.124120116861674   Change is   -0.000000493514171
 Root     13 :     7.168493913670023   Change is   -0.000000151993561
 Root     14 :     7.376922133101196   Change is   -0.000000824725886
 Root     15 :     7.399875089423301   Change is   -0.000000674848712
 Root     16 :     7.463904311548040   Change is   -0.000006554108815
 Davidson failed to converge within maximum sub-space dimensions.
  Restart with updated initial guess:
 Iteration     1 Dimension    64 NMult   256 NNew     64
 CISAX will form    64 AO SS matrices at one time.
 NMat=    64 NSing=    64 JSym2X= 0.
 Excitation Energies [eV] at current iteration:
 Root      1 :     5.276529767175665
 Root      2 :     5.451396162869210
 Root      3 :     5.827208098131258
 Root      4 :     6.022314476377589
 Root      5 :     6.315517965262702
 Root      6 :     6.393340648102907
 Root      7 :     6.424601846116414
 Root      8 :     6.556470474289795
 Root      9 :     6.665674927107197
 Root     10 :     6.908975693331832
 Root     11 :     7.031669559415325
 Root     12 :     7.124120084003700
 Root     13 :     7.168493900542958
 Root     14 :     7.376922079835907
 Root     15 :     7.399875041552961
 Root     16 :     7.463903864248979
 Iteration     2 Dimension    96 NMult   320 NNew     32
 CISAX will form    32 AO SS matrices at one time.
 NMat=    32 NSing=    32 JSym2X= 0.
 Root      1 has converged.
 Root      2 has converged.
 Root      3 has converged.
 Root      4 has converged.
 Root      5 not converged, maximum delta is    0.000001720722772
 Root      6 not converged, maximum delta is    0.000001797586234
 Root      7 not converged, maximum delta is    0.000002669839814
 Root      8 not converged, maximum delta is    0.000004435363692
 Root      9 not converged, maximum delta is    0.000005652310538
 Root     10 not converged, maximum delta is    0.000002809143177
 Root     11 not converged, maximum delta is    0.000005472817700
 Root     12 not converged, maximum delta is    0.000004904927194
 Root     13 not converged, maximum delta is    0.000007814593146
 Root     14 not converged, maximum delta is    0.000008430738495
 Root     15 not converged, maximum delta is    0.000005028342867
 Root     16 not converged, maximum delta is    0.000029111150451
 Excitation Energies [eV] at current iteration:
 Root      1 :     5.276529767146688   Change is   -0.000000000028978
 Root      2 :     5.451396162834753   Change is   -0.000000000034458
 Root      3 :     5.827208097848684   Change is   -0.000000000282574
 Root      4 :     6.022314475972320   Change is   -0.000000000405269
 Root      5 :     6.315517964281264   Change is   -0.000000000981437
 Root      6 :     6.393340647116443   Change is   -0.000000000986463
 Root      7 :     6.424601844988150   Change is   -0.000000001128264
 Root      8 :     6.556470471528506   Change is   -0.000000002761289
 Root      9 :     6.665674920114236   Change is   -0.000000006992962
 Root     10 :     6.908975691102940   Change is   -0.000000002228891
 Root     11 :     7.031669553002172   Change is   -0.000000006413153
 Root     12 :     7.124120079032225   Change is   -0.000000004971475
 Root     13 :     7.168493898278085   Change is   -0.000000002264874
 Root     14 :     7.376922072137082   Change is   -0.000000007698825
 Root     15 :     7.399875034020883   Change is   -0.000000007532079
 Root     16 :     7.463903789213880   Change is   -0.000000075035100
 Iteration     3 Dimension   120 NMult   352 NNew     24
 CISAX will form    24 AO SS matrices at one time.
 NMat=    24 NSing=    24 JSym2X= 0.
 Root      1 has converged.
 Root      2 has converged.
 Root      3 has converged.
 Root      4 has converged.
 Root      5 has converged.
 Root      6 has converged.
 Root      7 has converged.
 Root      8 not converged, maximum delta is    0.000001115307212
 Root      9 not converged, maximum delta is    0.000001521673097
 Root     10 not converged, maximum delta is    0.000001338176794
 Root     11 not converged, maximum delta is    0.000004362763598
 Root     12 not converged, maximum delta is    0.000004396755598
 Root     13 not converged, maximum delta is    0.000002848468430
 Root     14 not converged, maximum delta is    0.000002933880516
 Root     15 not converged, maximum delta is    0.000006087685878
 Root     16 not converged, maximum delta is    0.000013062862914
 Excitation Energies [eV] at current iteration:
 Root      1 :     5.276529767146001   Change is   -0.000000000000686
 Root      2 :     5.451396162833576   Change is   -0.000000000001177
 Root      3 :     5.827208097842364   Change is   -0.000000000006320
 Root      4 :     6.022314475961495   Change is   -0.000000000010825
 Root      5 :     6.315517964188299   Change is   -0.000000000092965
 Root      6 :     6.393340647016059   Change is   -0.000000000100384
 Root      7 :     6.424601844880473   Change is   -0.000000000107676
 Root      8 :     6.556470471263983   Change is   -0.000000000264523
 Root      9 :     6.665674919454139   Change is   -0.000000000660097
 Root     10 :     6.908975690822405   Change is   -0.000000000280535
 Root     11 :     7.031669552145218   Change is   -0.000000000856954
 Root     12 :     7.124120078297552   Change is   -0.000000000734673
 Root     13 :     7.168493897929231   Change is   -0.000000000348854
 Root     14 :     7.376922070977506   Change is   -0.000000001159576
 Root     15 :     7.399875032482721   Change is   -0.000000001538161
 Root     16 :     7.463903777592315   Change is   -0.000000011621564
 Iteration     4 Dimension   138 NMult   376 NNew     18
 CISAX will form    18 AO SS matrices at one time.
 NMat=    18 NSing=    18 JSym2X= 0.
 Root      1 has converged.
 Root      2 has converged.
 Root      3 has converged.
 Root      4 has converged.
 Root      5 has converged.
 Root      6 has converged.
 Root      7 has converged.
 Root      8 has converged.
 Root      9 has converged.
 Root     10 has converged.
 Root     11 not converged, maximum delta is    0.000003419227175
 Root     12 not converged, maximum delta is    0.000003619731463
 Root     13 not converged, maximum delta is    0.000001268846066
 Root     14 not converged, maximum delta is    0.000003479685137
 Root     15 not converged, maximum delta is    0.000007512670747
 Root     16 not converged, maximum delta is    0.000011967034989
 Excitation Energies [eV] at current iteration:
 Root      1 :     5.276529767145176   Change is   -0.000000000000826
 Root      2 :     5.451396162833922   Change is    0.000000000000347
 Root      3 :     5.827208097841179   Change is   -0.000000000001185
 Root      4 :     6.022314475961304   Change is   -0.000000000000191
 Root      5 :     6.315517964182298   Change is   -0.000000000006001
 Root      6 :     6.393340647016098   Change is    0.000000000000039
 Root      7 :     6.424601844875880   Change is   -0.000000000004594
 Root      8 :     6.556470471230757   Change is   -0.000000000033226
 Root      9 :     6.665674919351800   Change is   -0.000000000102339
 Root     10 :     6.908975690770016   Change is   -0.000000000052388
 Root     11 :     7.031669551946705   Change is   -0.000000000198513
 Root     12 :     7.124120078114792   Change is   -0.000000000182760
 Root     13 :     7.168493897869793   Change is   -0.000000000059438
 Root     14 :     7.376922070658245   Change is   -0.000000000319261
 Root     15 :     7.399875031707679   Change is   -0.000000000775042
 Root     16 :     7.463903775088511   Change is   -0.000000002503804
 Iteration     5 Dimension   150 NMult   394 NNew     12
 CISAX will form    12 AO SS matrices at one time.
 NMat=    12 NSing=    12 JSym2X= 0.
 Root      1 has converged.
 Root      2 has converged.
 Root      3 has converged.
 Root      4 has converged.
 Root      5 has converged.
 Root      6 has converged.
 Root      7 has converged.
 Root      8 has converged.
 Root      9 has converged.
 Root     10 has converged.
 Root     11 not converged, maximum delta is    0.000002268338165
 Root     12 not converged, maximum delta is    0.000002727993262
 Root     13 not converged, maximum delta is    0.000001186628698
 Root     14 not converged, maximum delta is    0.000003641988517
 Root     15 not converged, maximum delta is    0.000008583878574
 Root     16 not converged, maximum delta is    0.000015743281238
 Excitation Energies [eV] at current iteration:
 Root      1 :     5.276529767144988   Change is   -0.000000000000187
 Root      2 :     5.451396162833817   Change is   -0.000000000000105
[...]
 Alpha virt. eigenvalues --    4.71784   4.73724   4.76451   4.76854   4.80217
 Alpha virt. eigenvalues --    4.81766   4.82510   4.83565   4.86057   4.87922
 Alpha virt. eigenvalues --    4.96675   4.98893   4.99027   5.00465   5.05680
 Alpha virt. eigenvalues --    5.07361   5.10057   5.21282   5.23769   5.29096
 Alpha virt. eigenvalues --    5.30357   5.32763   5.33228   5.34983   5.37040
 Alpha virt. eigenvalues --    5.43000   5.47532   5.54193   5.56894   5.58415
 Alpha virt. eigenvalues --    5.59573   5.64929   5.71922   5.75024   5.83267
 Alpha virt. eigenvalues --    5.89444   5.93521   6.07708   6.45625   6.60676
 Alpha virt. eigenvalues --    6.87289   6.91001   7.14747   7.32178  22.20770
 Alpha virt. eigenvalues --   22.29273  22.57900  22.61519  22.70895  22.73616
 Alpha virt. eigenvalues --   22.74952  22.76843  22.87471  22.92938  22.96566
 Alpha virt. eigenvalues --   22.97936  23.09140  23.39171  23.59409  44.22666
          Condensed to atoms (all electrons):
               1          2          3          4          5          6
     1  C    5.088337   0.470122   0.203247  -0.005239  -0.089326  -0.074575
     2  H    0.470122   0.572146  -0.063769  -0.000259  -0.037961   0.012374
     3  C    0.203247  -0.063769   5.996103  -0.152821   0.090273   0.144576
     4  C   -0.005239  -0.000259  -0.152821   5.054403   0.080489   0.081057
     5  C   -0.089326  -0.037961   0.090273   0.080489   5.379745   0.053527
     6  C   -0.074575   0.012374   0.144576   0.081057   0.053527   5.397186
     7  C    0.014204   0.000606   0.086049   0.344354  -0.154028   0.371191
     8  C    0.019156   0.001151   0.071141   0.350798   0.366749  -0.138681
     9  H   -0.000053   0.000000   0.024662  -0.059503  -0.004879  -0.075815
    10  H   -0.000036  -0.000008   0.027796  -0.061816  -0.071004  -0.005907
    11  H   -0.000013  -0.000002  -0.006827   0.467097   0.014859   0.014988
    12  C    0.129735  -0.057209  -0.010952  -0.000606   0.013665  -0.039644
    13  C   -0.000481   0.000538  -0.000139   0.000006  -0.000104   0.000340
    14  C   -0.065060   0.003260   0.014149  -0.000898  -0.005202  -0.003692
    15  C   -0.053162   0.005032   0.003088   0.000065  -0.002589   0.008476
    16  C    0.005871  -0.000954   0.000612  -0.000002   0.000239  -0.001145
    17  C    0.002732  -0.001136   0.002351  -0.000071   0.001436  -0.001069
    18  H    0.002782   0.001037   0.002906  -0.000051  -0.001368  -0.000944
    19  H   -0.010466   0.001535  -0.000444  -0.000001  -0.000268   0.001150
    20  H   -0.000500  -0.000002   0.000027   0.000000   0.000000  -0.000001
    21  H   -0.000344  -0.000011   0.000047  -0.000001  -0.000016   0.000036
    22  H    0.000082   0.000000  -0.000006   0.000000   0.000000   0.000002
    23  O    0.294603  -0.030831  -0.022681   0.000149   0.004488   0.009330
    24  H   -0.040255  -0.004178   0.004648   0.000000   0.003816  -0.004159
    25  C    0.000633  -0.001982  -0.094086   0.012857   0.019684   0.257707
    26  H    0.005682   0.001088  -0.021088  -0.000158  -0.000012  -0.044269
    27  H   -0.001216   0.000012   0.020230   0.000153  -0.000769  -0.056973
    28  H   -0.014597   0.000118  -0.013494   0.000239   0.001247  -0.016289
    29  C   -0.010555   0.017407  -0.108811   0.014958   0.258715   0.026244
    30  H   -0.001178  -0.006167  -0.014874   0.000142  -0.032474   0.001149
    31  H    0.000818   0.001283   0.019881   0.000311  -0.051078  -0.000813
    32  H   -0.008767  -0.005711  -0.012042  -0.000055  -0.040598  -0.000141
               7          8          9         10         11         12
     1  C    0.014204   0.019156  -0.000053  -0.000036  -0.000013   0.129735
     2  H    0.000606   0.001151   0.000000  -0.000008  -0.000002  -0.057209
     3  C    0.086049   0.071141   0.024662   0.027796  -0.006827  -0.010952
     4  C    0.344354   0.350798  -0.059503  -0.061816   0.467097  -0.000606
     5  C   -0.154028   0.366749  -0.004879  -0.071004   0.014859   0.013665
     6  C    0.371191  -0.138681  -0.075815  -0.005907   0.014988  -0.039644
     7  C    5.205869   0.069307   0.458002   0.013493  -0.064345   0.001960
     8  C    0.069307   5.202549   0.012659   0.454312  -0.064719   0.001259
     9  H    0.458002   0.012659   0.529850  -0.000091  -0.006282   0.000072
    10  H    0.013493   0.454312  -0.000091   0.531436  -0.006200   0.000047
    11  H   -0.064345  -0.064719  -0.006282  -0.006200   0.507288  -0.000009
    12  C    0.001960   0.001259   0.000072   0.000047  -0.000009   5.605198
    13  C   -0.000016   0.000002  -0.000001   0.000000   0.000000  -0.119616
    14  C    0.003279   0.000740   0.000082  -0.000024  -0.000005   0.315035
    15  C    0.000093   0.000161  -0.000024  -0.000002   0.000000   0.184947
    16  C   -0.000054   0.000000   0.000001   0.000000   0.000000   0.059904
    17  C   -0.000010   0.000006  -0.000004  -0.000001   0.000000   0.046490
    18  H    0.000105   0.000915  -0.000001   0.000025  -0.000002  -0.073825
    19  H    0.000027   0.000007  -0.000001   0.000000   0.000000  -0.066372
    20  H    0.000000   0.000000   0.000000   0.000000   0.000000   0.015894
    21  H   -0.000001  -0.000004   0.000000   0.000000   0.000000   0.013906
    22  H    0.000000   0.000000   0.000000   0.000000   0.000000  -0.004149
    23  O   -0.000184  -0.001122   0.000027   0.000009   0.000000  -0.147081
    24  H   -0.000225  -0.000294   0.000004   0.000001   0.000000   0.020512
    25  C   -0.079670  -0.004459  -0.011728   0.000005   0.000018   0.013805
    26  H    0.003653  -0.000049   0.000092  -0.000002   0.000004  -0.018098
    27  H   -0.004462   0.000343   0.005275   0.000000  -0.000063   0.001418
    28  H   -0.006993  -0.000248  -0.000053  -0.000002   0.000012  -0.004423
    29  C   -0.005899  -0.083236   0.000016  -0.014224   0.000021  -0.011460
    30  H   -0.000199  -0.003775  -0.000003  -0.000047   0.000009  -0.003018
    31  H    0.000399  -0.007299   0.000001   0.005722  -0.000059  -0.000103
    32  H    0.000002  -0.000934  -0.000002  -0.000031   0.000008   0.003127
              13         14         15         16         17         18
     1  C   -0.000481  -0.065060  -0.053162   0.005871   0.002732   0.002782
     2  H    0.000538   0.003260   0.005032  -0.000954  -0.001136   0.001037
     3  C   -0.000139   0.014149   0.003088   0.000612   0.002351   0.002906
     4  C    0.000006  -0.000898   0.000065  -0.000002  -0.000071  -0.000051
     5  C   -0.000104  -0.005202  -0.002589   0.000239   0.001436  -0.001368
     6  C    0.000340  -0.003692   0.008476  -0.001145  -0.001069  -0.000944
     7  C   -0.000016   0.003279   0.000093  -0.000054  -0.000010   0.000105
     8  C    0.000002   0.000740   0.000161   0.000000   0.000006   0.000915
     9  H   -0.000001   0.000082  -0.000024   0.000001  -0.000004  -0.000001
    10  H    0.000000  -0.000024  -0.000002   0.000000  -0.000001   0.000025
    11  H    0.000000  -0.000005   0.000000   0.000000   0.000000  -0.000002
    12  C   -0.119616   0.315035   0.184947   0.059904   0.046490  -0.073825
    13  C    5.034044   0.039207   0.058055   0.383312   0.386895   0.009949
    14  C    0.039207   5.158603   0.047602  -0.092739   0.389480   0.453863
    15  C    0.058055   0.047602   5.275607   0.364237  -0.096998   0.011172
    16  C    0.383312  -0.092739   0.364237   5.028682   0.036857  -0.003927
    17  C    0.386895   0.389480  -0.096998   0.036857   5.028969  -0.049531
    18  H    0.009949   0.453863   0.011172  -0.003927  -0.049531   0.500899
    19  H    0.011870   0.013930   0.453522  -0.052492  -0.005059   0.000049
    20  H   -0.059156  -0.004277  -0.064121   0.459374   0.011877   0.000021
    21  H   -0.058136  -0.061143  -0.004689   0.011953   0.458491  -0.006474
    22  H    0.455423   0.011685   0.011759  -0.058172  -0.057870  -0.000069
    23  O    0.000611   0.002807   0.033653  -0.001790  -0.000511   0.000055
    24  H   -0.000024  -0.000477  -0.004680   0.000066   0.000064  -0.000043
    25  C    0.000749  -0.004470   0.002760  -0.000415   0.000649  -0.000124
    26  H    0.000387   0.003648   0.001291  -0.001784  -0.000312   0.000008
    27  H   -0.000057   0.000282   0.000340   0.000052  -0.000060  -0.000004
    28  H    0.001905   0.000301   0.003150  -0.001570  -0.000553   0.000349
    29  C    0.000038   0.002444   0.000592  -0.000038  -0.000180  -0.001596
    30  H   -0.000016   0.002054  -0.000135   0.000016   0.000089  -0.000614
    31  H    0.000000  -0.000052   0.000001   0.000000  -0.000003   0.000071
    32  H   -0.000002  -0.000003  -0.000085   0.000002   0.000022   0.000129
              19         20         21         22         23         24
     1  C   -0.010466  -0.000500  -0.000344   0.000082   0.294603  -0.040255
     2  H    0.001535  -0.000002  -0.000011   0.000000  -0.030831  -0.004178
     3  C   -0.000444   0.000027   0.000047  -0.000006  -0.022681   0.004648
     4  C   -0.000001   0.000000  -0.000001   0.000000   0.000149   0.000000
     5  C   -0.000268   0.000000  -0.000016   0.000000   0.004488   0.003816
     6  C    0.001150  -0.000001   0.000036   0.000002   0.009330  -0.004159
     7  C    0.000027   0.000000  -0.000001   0.000000  -0.000184  -0.000225
     8  C    0.000007   0.000000  -0.000004   0.000000  -0.001122  -0.000294
     9  H   -0.000001   0.000000   0.000000   0.000000   0.000027   0.000004
    10  H    0.000000   0.000000   0.000000   0.000000   0.000009   0.000001
    11  H    0.000000   0.000000   0.000000   0.000000   0.000000   0.000000
    12  C   -0.066372   0.015894   0.013906  -0.004149  -0.147081   0.020512
    13  C    0.011870  -0.059156  -0.058136   0.455423   0.000611  -0.000024
    14  C    0.013930  -0.004277  -0.061143   0.011685   0.002807  -0.000477
    15  C    0.453522  -0.064121  -0.004689   0.011759   0.033653  -0.004680
    16  C   -0.052492   0.459374   0.011953  -0.058172  -0.001790   0.000066
    17  C   -0.005059   0.011877   0.458491  -0.057870  -0.000511   0.000064
    18  H    0.000049   0.000021  -0.006474  -0.000069   0.000055  -0.000043
    19  H    0.491977  -0.006568   0.000008  -0.000034   0.019948  -0.001361
    20  H   -0.006568   0.515066  -0.000049  -0.006888  -0.000153   0.000002
    21  H    0.000008  -0.000049   0.513641  -0.006704   0.000003   0.000000
    22  H   -0.000034  -0.006888  -0.006704   0.513611   0.000000   0.000000
    23  O    0.019948  -0.000153   0.000003   0.000000   8.036762   0.308434
    24  H   -0.001361   0.000002   0.000000   0.000000   0.308434   0.377655
    25  C   -0.000975  -0.000047   0.000000   0.000003  -0.031089   0.001259
    26  H    0.001584  -0.000031  -0.000002   0.000001   0.020979  -0.000978
    27  H   -0.000007   0.000002   0.000000   0.000000   0.000550  -0.000009
    28  H    0.000439  -0.000067  -0.000031   0.000005   0.001136   0.000034
    29  C    0.000072   0.000000  -0.000003   0.000000  -0.004403  -0.001523
    30  H   -0.000008   0.000000  -0.000001   0.000000   0.000235   0.000170
    31  H    0.000000   0.000000   0.000000   0.000000  -0.000030  -0.000015
    32  H   -0.000014   0.000000   0.000000   0.000000   0.001742   0.000240
              25         26         27         28         29         30
     1  C    0.000633   0.005682  -0.001216  -0.014597  -0.010555  -0.001178
     2  H   -0.001982   0.001088   0.000012   0.000118   0.017407  -0.006167
     3  C   -0.094086  -0.021088   0.020230  -0.013494  -0.108811  -0.014874
     4  C    0.012857  -0.000158   0.000153   0.000239   0.014958   0.000142
     5  C    0.019684  -0.000012  -0.000769   0.001247   0.258715  -0.032474
     6  C    0.257707  -0.044269  -0.056973  -0.016289   0.026244   0.001149
     7  C   -0.079670   0.003653  -0.004462  -0.006993  -0.005899  -0.000199
     8  C   -0.004459  -0.000049   0.000343  -0.000248  -0.083236  -0.003775
     9  H   -0.011728   0.000092   0.005275  -0.000053   0.000016  -0.000003
    10  H    0.000005  -0.000002   0.000000  -0.000002  -0.014224  -0.000047
    11  H    0.000018   0.000004  -0.000063   0.000012   0.000021   0.000009
    12  C    0.013805  -0.018098   0.001418  -0.004423  -0.011460  -0.003018
    13  C    0.000749   0.000387  -0.000057   0.001905   0.000038  -0.000016
    14  C   -0.004470   0.003648   0.000282   0.000301   0.002444   0.002054
    15  C    0.002760   0.001291   0.000340   0.003150   0.000592  -0.000135
    16  C   -0.000415  -0.001784   0.000052  -0.001570  -0.000038   0.000016
    17  C    0.000649  -0.000312  -0.000060  -0.000553  -0.000180   0.000089
    18  H   -0.000124   0.000008  -0.000004   0.000349  -0.001596  -0.000614
    19  H   -0.000975   0.001584  -0.000007   0.000439   0.000072  -0.000008
    20  H   -0.000047  -0.000031   0.000002  -0.000067   0.000000   0.000000
    21  H    0.000000  -0.000002   0.000000  -0.000031  -0.000003  -0.000001
    22  H    0.000003   0.000001   0.000000   0.000005   0.000000   0.000000
    23  O   -0.031089   0.020979   0.000550   0.001136  -0.004403   0.000235
    24  H    0.001259  -0.000978  -0.000009   0.000034  -0.001523   0.000170
    25  C    5.053018   0.430936   0.403983   0.404424  -0.000497   0.000098
    26  H    0.430936   0.520726  -0.017255  -0.028221   0.000187  -0.000004
    27  H    0.403983  -0.017255   0.534291  -0.021117   0.000013   0.000000
    28  H    0.404424  -0.028221  -0.021117   0.549202   0.000122  -0.000012
    29  C   -0.000497   0.000187   0.000013   0.000122   5.077714   0.421733
    30  H    0.000098  -0.000004   0.000000  -0.000012   0.421733   0.541665
    31  H   -0.000021   0.000003   0.000000   0.000000   0.406650  -0.017337
    32  H    0.000071  -0.000040  -0.000001   0.000001   0.430505  -0.035221
              31         32
     1  C    0.000818  -0.008767
     2  H    0.001283  -0.005711
     3  C    0.019881  -0.012042
     4  C    0.000311  -0.000055
     5  C   -0.051078  -0.040598
     6  C   -0.000813  -0.000141
     7  C    0.000399   0.000002
     8  C   -0.007299  -0.000934
     9  H    0.000001  -0.000002
    10  H    0.005722  -0.000031
    11  H   -0.000059   0.000008
    12  C   -0.000103   0.003127
    13  C    0.000000  -0.000002
    14  C   -0.000052  -0.000003
    15  C    0.000001  -0.000085
    16  C    0.000000   0.000002
    17  C   -0.000003   0.000022
    18  H    0.000071   0.000129
    19  H    0.000000  -0.000014
    20  H    0.000000   0.000000
    21  H    0.000000   0.000000
    22  H    0.000000   0.000000
    23  O   -0.000030   0.001742
    24  H   -0.000015   0.000240
    25  C   -0.000021   0.000071
    26  H    0.000003  -0.000040
    27  H    0.000000  -0.000001
    28  H    0.000000   0.000001
    29  C    0.406650   0.430505
    30  H   -0.017337  -0.035221
    31  H    0.522615  -0.017750
    32  H   -0.017750   0.531701
 Mulliken charges:
               1
     1  C    0.137818
     2  H    0.122473
     3  C   -0.189750
     4  C   -0.125596
     5  C    0.202745
     6  C    0.084785
     7  C   -0.256507
     8  C   -0.246436
     9  H    0.127695
    10  H    0.126548
    11  H    0.144220
    12  C    0.129593
    13  C   -0.145583
    14  C   -0.224408
    15  C   -0.239118
    16  C   -0.136096
    17  C   -0.153042
    18  H    0.154240
    19  H    0.147950
    20  H    0.139597
    21  H    0.139525
    22  H    0.141325
    23  O   -0.495645
    24  H    0.341317
    25  C   -0.373095
    26  H    0.142032
    27  H    0.135049
    28  H    0.144989
    29  C   -0.415005
    30  H    0.147724
    31  H    0.136809
    32  H    0.153848
 Sum of Mulliken charges =   0.00000
 Mulliken charges with hydrogens summed into heavy atoms:
               1
     1  C    0.260291
     3  C   -0.189750
     4  C    0.018624
     5  C    0.202745
     6  C    0.084785
     7  C   -0.128812
     8  C   -0.119888
    12  C    0.129593
    13  C   -0.004258
    14  C   -0.070168
    15  C   -0.091168
    16  C    0.003501
    17  C   -0.013517
    23  O   -0.154328
    25  C    0.048975
    29  C    0.023376
 Electronic spatial extent (au):  <R**2>=           3594.2188
 Charge=              0.0000 electrons
 Dipole moment (field-independent basis, Debye):
    X=             -1.5760    Y=             -0.7980    Z=             -0.5098  Tot=              1.8386
 Quadrupole moment (field-independent basis, Debye-Ang):
   XX=            -88.6736   YY=            -90.8353   ZZ=            -93.2450
   XY=              4.5796   XZ=             -1.9862   YZ=              0.1555
 Traceless Quadrupole moment (field-independent basis, Debye-Ang):
   XX=              2.2444   YY=              0.0826   ZZ=             -2.3270
   XY=              4.5796   XZ=             -1.9862   YZ=              0.1555
 Octapole moment (field-independent basis, Debye-Ang**2):
  XXX=              6.1485  YYY=              1.4989  ZZZ=             10.3978  XYY=            -22.6170
  XXY=              9.9052  XXZ=            -15.1259  XZZ=              1.2247  YZZ=             -5.7807
  YYZ=              4.2394  XYZ=              6.6749
 Hexadecapole moment (field-independent basis, Debye-Ang**3):
 XXXX=          -3025.6829 YYYY=           -935.4285 ZZZZ=           -690.0668 XXXY=             64.7710
 XXXZ=             61.1654 YYYX=             -8.7912 YYYZ=            -10.4324 ZZZX=            -61.3507
 ZZZY=             -1.8181 XXYY=           -700.1196 XXZZ=           -626.2459 YYZZ=           -290.3520
 XXYZ=             -9.1337 YYXZ=             15.2922 ZZXY=             11.2102
 N-N= 1.057221522777D+03 E-N=-3.640250998701D+03  KE= 6.528658244256D+02
 No NMR shielding tensors so no spin-rotation constants.
 Leave Link  601 at Sun Jul 24 12:19:49 2016, MaxMem=  3221225472 cpu:        29.8
 (Enter /cm/shared/apps/gaussian/g09D01/g09/l9999.exe)
 1\1\GINC-R730XD-GPU\FOpt\RwB97XD TD-FC\def2TZVP\C15H16O1\DPADULA\24-Ju
 l-2016\0\\#p opt freq=(noraman,hpmodes) td=(nstates=16,root=1) wb97xd 
 def2tzvp scrf=(iefpcm,solvent=ethanol) nosymm\\MeMe_M0001\\0,1\C,0.140
 0733521,-0.7746118473,0.9497768877\H,0.0438583711,-1.8607323432,0.8766
 656837\C,-1.0864028223,-0.1589441868,0.3375837961\C,-3.4406883894,1.00
 04323779,-0.8830638261\C,-2.1507925431,-0.9841945812,-0.1543352683\C,-
 1.2184449012,1.2625192608,0.1871831766\C,-2.3888117048,1.8088763548,-0
 .4082611214\C,-3.2980598974,-0.3943960512,-0.7525979746\H,-2.460799535
 2,2.8864384496,-0.4914488296\H,-4.0803559893,-1.0522965752,-1.11001038
 86\H,-4.3214406478,1.4344438043,-1.3317723982\C,1.4334958076,-0.428472
 8542,0.2311469061\C,3.7891031752,0.1419556305,-1.1608556565\C,1.504973
 3716,-0.6075483355,-1.1479421864\C,2.5572668163,0.0307370324,0.9055752
 732\C,3.7263573996,0.318005023,0.2127487761\C,2.6713652674,-0.32618012
 54,-1.8401071769\H,0.6318182538,-0.9613301621,-1.6848968084\H,2.511663
 2395,0.1754355418,1.9757893048\H,4.5923147108,0.6823536491,0.751852969
 \H,2.708619092,-0.4698207693,-2.9128987886\H,4.7012464645,0.3664074691
 ,-1.6992728908\O,0.2913433619,-0.4418642824,2.3367145053\H,-0.56998224
 63,-0.556925679,2.744963173\C,-0.1497368532,2.2046912716,0.6200837122\
 H,0.2805184167,1.9090543718,1.5787478807\H,-0.5322196283,3.2227590917,
 0.6901369446\H,0.6813422182,2.207791645,-0.0962030244\C,-2.0969984001,
 -2.4696627426,-0.0588008679\H,-1.2387589695,-2.8793899296,-0.604329983
 7\H,-3.0010308011,-2.9218128348,-0.4625410548\H,-1.981653989,-2.801413
 6733,0.979881256\\Version=ES64L-G09RevD.01\HF=-656.4785079\RMSD=8.312e
 -09\RMSF=7.165e-06\Dipole=-0.7632456,-0.2655428,-0.2724219\PG=C01 [X(C
 15H16O1)]\\@


 THERE IS NOTHING NOBLE IN BEING SUPERIOR TO SOME OTHER MAN.
 TRUE NOBILITY IS BEING SUPERIOR TO YOUR FORMER SELF.

                                                   -- HINDU PROVERB
 Leave Link 9999 at Sun Jul 24 12:19:50 2016, MaxMem=  3221225472 cpu:         7.3
 Job cpu time:      25 days  4 hours 45 minutes  1.5 seconds.
 File lengths (MBytes):  RWF=   1291 Int=      0 D2E=      0 Chk=    184 Scr=      1
 Normal termination of Gaussian 09 at Sun Jul 24 12:19:50 2016.
