 Entering Gaussian System, Link 0=g09
 Input=MeMe_M0001_force.com
 Output=MeMe_M0001_force.log
 Initial command:
 /cm/shared/apps/gaussian/g09D01/g09/l1.exe "/local/dpadula/Gau-77741.inp" -scrdir="/local/dpadula/"
 Entering Link 1 = /cm/shared/apps/gaussian/g09D01/g09/l1.exe PID=     77742.
  
 Copyright (c) 1988,1990,1992,1993,1995,1998,2003,2009,2013,
            Gaussian, Inc.  All Rights Reserved.
  
 This is part of the Gaussian(R) 09 program.  It is based on
 the Gaussian(R) 03 system (copyright 2003, Gaussian, Inc.),
 the Gaussian(R) 98 system (copyright 1998, Gaussian, Inc.),
 the Gaussian(R) 94 system (copyright 1995, Gaussian, Inc.),
 the Gaussian 92(TM) system (copyright 1992, Gaussian, Inc.),
 the Gaussian 90(TM) system (copyright 1990, Gaussian, Inc.),
 the Gaussian 88(TM) system (copyright 1988, Gaussian, Inc.),
 the Gaussian 86(TM) system (copyright 1986, Carnegie Mellon
 University), and the Gaussian 82(TM) system (copyright 1983,
 Carnegie Mellon University). Gaussian is a federally registered
 trademark of Gaussian, Inc.
  
 This software contains proprietary and confidential information,
 including trade secrets, belonging to Gaussian, Inc.
  
 This software is provided under written license and may be
 used, copied, transmitted, or stored only in accord with that
 written license.
  
 The following legend is applicable only to US Government
 contracts under FAR:
  
                    RESTRICTED RIGHTS LEGEND
  
 Use, reproduction and disclosure by the US Government is
 subject to restrictions as set forth in subparagraphs (a)
 and (c) of the Commercial Computer Software - Restricted
 Rights clause in FAR 52.227-19.
  
 Gaussian, Inc.
 340 Quinnipiac St., Bldg. 40, Wallingford CT 06492
  
  
 ---------------------------------------------------------------
 Warning -- This program may not be used in any manner that
 competes with the business of Gaussian, Inc. or will provide
 assistance to any competitor of Gaussian, Inc.  The licensee
 of this program is prohibited from giving any competitor of
 Gaussian, Inc. access to this program.  By using this program,
 the user acknowledges that Gaussian, Inc. is engaged in the
 business of creating and licensing software in the field of
 computational chemistry and represents and warrants to the
 licensee that it is not a competitor of Gaussian, Inc. and that
 it will not use this program in any manner prohibited above.
 ---------------------------------------------------------------
  

 Cite this work as:
 Gaussian 09, Revision D.01,
 M. J. Frisch, G. W. Trucks, H. B. Schlegel, G. E. Scuseria, 
 M. A. Robb, J. R. Cheeseman, G. Scalmani, V. Barone, B. Mennucci, 
 G. A. Petersson, H. Nakatsuji, M. Caricato, X. Li, H. P. Hratchian, 
 A. F. Izmaylov, J. Bloino, G. Zheng, J. L. Sonnenberg, M. Hada, 
 M. Ehara, K. Toyota, R. Fukuda, J. Hasegawa, M. Ishida, T. Nakajima, 
 Y. Honda, O. Kitao, H. Nakai, T. Vreven, J. A. Montgomery, Jr., 
 J. E. Peralta, F. Ogliaro, M. Bearpark, J. J. Heyd, E. Brothers, 
 K. N. Kudin, V. N. Staroverov, T. Keith, R. Kobayashi, J. Normand, 
 K. Raghavachari, A. Rendell, J. C. Burant, S. S. Iyengar, J. Tomasi, 
 M. Cossi, N. Rega, J. M. Millam, M. Klene, J. E. Knox, J. B. Cross, 
 V. Bakken, C. Adamo, J. Jaramillo, R. Gomperts, R. E. Stratmann, 
 O. Yazyev, A. J. Austin, R. Cammi, C. Pomelli, J. W. Ochterski, 
 R. L. Martin, K. Morokuma, V. G. Zakrzewski, G. A. Voth, 
 P. Salvador, J. J. Dannenberg, S. Dapprich, A. D. Daniels, 
 O. Farkas, J. B. Foresman, J. V. Ortiz, J. Cioslowski, 
 and D. J. Fox, Gaussian, Inc., Wallingford CT, 2013.
 
 ******************************************
 Gaussian 09:  ES64L-G09RevD.01 24-Apr-2013
                23-Jul-2016 
 ******************************************
 %nprocshared=32
 Will use up to   32 processors via shared memory.
 %chk=MeMe_M0001_force.chk
 %mem=24GB
 ----------------------------------------------------------------------
 #p force td=(nstates=16,root=1) wb97xd def2tzvp scrf=(iefpcm,solvent=e
 thanol) nosymm
 ----------------------------------------------------------------------
 1/10=7,30=1,38=1/1,3;
 2/12=2,15=1,17=6,18=5,40=1/2;
 3/5=44,7=101,11=9,16=1,25=1,30=1,70=2201,71=1,72=4,74=-58/1,2,8,3;
 4//1;
 5/5=2,38=5,53=4/2;
 8/6=1,10=1,107=1,108=16/1;
 9/8=1,15=2,41=16,42=1,70=2/14;
 10/5=4,31=1/2;
 6/7=2,8=2,9=2,10=2,18=1/1;
 7/12=6,13=5,14=1,29=1,30=1/1,2,3,16;
 1/10=7,30=1/3;
 99//99;
 Leave Link    1 at Sat Jul 23 14:50:31 2016, MaxMem=  3221225472 cpu:         6.5
 (Enter /cm/shared/apps/gaussian/g09D01/g09/l101.exe)
 ----------
 MeMe_M0001
 ----------
 Symbolic Z-matrix:
 Charge =  0 Multiplicity = 1
 C                     0.12686  -0.72369   0.9537 
 H                     0.03095  -1.81227   0.92863 
 C                    -1.10979  -0.12432   0.30124 
 C                    -3.41218   0.94861  -0.84444 
 C                    -2.12637  -0.97343  -0.15857 
 C                    -1.24505   1.26795   0.1743 
 C                    -2.40429   1.78177  -0.39401 
 C                    -3.26862  -0.42031  -0.72905 
 H                    -2.51257   2.85582  -0.48855 
 H                    -4.05388  -1.0772   -1.08383 
 H                    -4.30787   1.36726  -1.28607 
 C                     1.41716  -0.40725   0.22563 
 C                     3.7932    0.08367  -1.15061 
 C                     1.47054  -0.52981  -1.15906 
 C                     2.56486  -0.04182   0.9148 
 C                     3.74494   0.20597   0.22871 
 C                     2.64965  -0.287    -1.84349 
 H                     0.57559  -0.80126  -1.70756 
 H                     2.52572   0.05959   1.99032 
 H                     4.63219   0.49648   0.77767 
 H                     2.67504  -0.38403  -2.92175 
 H                     4.71548   0.27729  -1.68354 
 O                     0.2515   -0.32948   2.3142 
 H                    -0.60869  -0.42759   2.72489 
 C                    -0.16614   2.22793   0.60164 
 H                     0.26904   1.95179   1.55959 
 H                    -0.56805   3.23831   0.67568 
 H                     0.64563   2.24076  -0.1292 
 C                    -2.02857  -2.47711  -0.06816 
 H                    -1.16921  -2.86441  -0.61945 
 H                    -2.92232  -2.93717  -0.48788 
 H                    -1.93557  -2.82275   0.9637 
 
 NAtoms=     32 NQM=       32 NQMF=       0 NMMI=      0 NMMIF=      0
                NMic=       0 NMicF=      0.
                    Isotopes and Nuclear Properties:
 (Nuclear quadrupole moments (NQMom) in fm**2, nuclear magnetic moments (NMagM)
  in nuclear magnetons)

  Atom         1           2           3           4           5           6           7           8           9          10
 IAtWgt=          12           1          12          12          12          12          12          12           1           1
 AtmWgt=  12.0000000   1.0078250  12.0000000  12.0000000  12.0000000  12.0000000  12.0000000  12.0000000   1.0078250   1.0078250
 NucSpn=           0           1           0           0           0           0           0           0           1           1
 AtZEff=   0.0000000   0.0000000   0.0000000   0.0000000   0.0000000   0.0000000   0.0000000   0.0000000   0.0000000   0.0000000
 NQMom=    0.0000000   0.0000000   0.0000000   0.0000000   0.0000000   0.0000000   0.0000000   0.0000000   0.0000000   0.0000000
 NMagM=    0.0000000   2.7928460   0.0000000   0.0000000   0.0000000   0.0000000   0.0000000   0.0000000   2.7928460   2.7928460
 AtZNuc=   6.0000000   1.0000000   6.0000000   6.0000000   6.0000000   6.0000000   6.0000000   6.0000000   1.0000000   1.0000000

  Atom        11          12          13          14          15          16          17          18          19          20
 IAtWgt=           1          12          12          12          12          12          12           1           1           1
 AtmWgt=   1.0078250  12.0000000  12.0000000  12.0000000  12.0000000  12.0000000  12.0000000   1.0078250   1.0078250   1.0078250
 NucSpn=           1           0           0           0           0           0           0           1           1           1
 AtZEff=   0.0000000   0.0000000   0.0000000   0.0000000   0.0000000   0.0000000   0.0000000   0.0000000   0.0000000   0.0000000
 NQMom=    0.0000000   0.0000000   0.0000000   0.0000000   0.0000000   0.0000000   0.0000000   0.0000000   0.0000000   0.0000000
 NMagM=    2.7928460   0.0000000   0.0000000   0.0000000   0.0000000   0.0000000   0.0000000   2.7928460   2.7928460   2.7928460
 AtZNuc=   1.0000000   6.0000000   6.0000000   6.0000000   6.0000000   6.0000000   6.0000000   1.0000000   1.0000000   1.0000000

  Atom        21          22          23          24          25          26          27          28          29          30
 IAtWgt=           1           1          16           1          12           1           1           1          12           1
 AtmWgt=   1.0078250   1.0078250  15.9949146   1.0078250  12.0000000   1.0078250   1.0078250   1.0078250  12.0000000   1.0078250
 NucSpn=           1           1           0           1           0           1           1           1           0           1
 AtZEff=   0.0000000   0.0000000   0.0000000   0.0000000   0.0000000   0.0000000   0.0000000   0.0000000   0.0000000   0.0000000
 NQMom=    0.0000000   0.0000000   0.0000000   0.0000000   0.0000000   0.0000000   0.0000000   0.0000000   0.0000000   0.0000000
 NMagM=    2.7928460   2.7928460   0.0000000   2.7928460   0.0000000   2.7928460   2.7928460   2.7928460   0.0000000   2.7928460
 AtZNuc=   1.0000000   1.0000000   8.0000000   1.0000000   6.0000000   1.0000000   1.0000000   1.0000000   6.0000000   1.0000000

  Atom        31          32
 IAtWgt=           1           1
 AtmWgt=   1.0078250   1.0078250
 NucSpn=           1           1
 AtZEff=   0.0000000   0.0000000
 NQMom=    0.0000000   0.0000000
 NMagM=    2.7928460   2.7928460
 AtZNuc=   1.0000000   1.0000000
 Leave Link  101 at Sat Jul 23 14:50:32 2016, MaxMem=  3221225472 cpu:         4.0
 (Enter /cm/shared/apps/gaussian/g09D01/g09/l103.exe)

 GradGradGradGradGradGradGradGradGradGradGradGradGradGradGradGradGradGrad
 Berny optimization.
 Initialization pass.
 Trust Radius=3.00D-01 FncErr=1.00D-07 GrdErr=1.00D-07
 Number of steps in this run=      2 maximum allowed number of steps=      2.
 GradGradGradGradGradGradGradGradGradGradGradGradGradGradGradGradGradGrad

 Leave Link  103 at Sat Jul 23 14:50:32 2016, MaxMem=  3221225472 cpu:         0.7
 (Enter /cm/shared/apps/gaussian/g09D01/g09/l202.exe)
                          Input orientation:                          
 ---------------------------------------------------------------------
 Center     Atomic      Atomic             Coordinates (Angstroms)
 Number     Number       Type             X           Y           Z
 ---------------------------------------------------------------------
      1          6           0        0.126863   -0.723690    0.953698
      2          1           0        0.030954   -1.812271    0.928634
      3          6           0       -1.109786   -0.124323    0.301239
      4          6           0       -3.412180    0.948606   -0.844442
      5          6           0       -2.126369   -0.973431   -0.158565
      6          6           0       -1.245046    1.267954    0.174303
      7          6           0       -2.404293    1.781769   -0.394011
      8          6           0       -3.268618   -0.420311   -0.729054
      9          1           0       -2.512569    2.855816   -0.488548
     10          1           0       -4.053877   -1.077196   -1.083831
     11          1           0       -4.307869    1.367258   -1.286068
     12          6           0        1.417156   -0.407253    0.225633
     13          6           0        3.793195    0.083673   -1.150612
     14          6           0        1.470541   -0.529812   -1.159055
     15          6           0        2.564860   -0.041818    0.914804
     16          6           0        3.744943    0.205969    0.228714
     17          6           0        2.649650   -0.286996   -1.843485
     18          1           0        0.575588   -0.801255   -1.707563
     19          1           0        2.525718    0.059587    1.990319
     20          1           0        4.632191    0.496484    0.777674
     21          1           0        2.675037   -0.384031   -2.921752
     22          1           0        4.715477    0.277292   -1.683537
     23          8           0        0.251495   -0.329476    2.314196
     24          1           0       -0.608685   -0.427586    2.724890
     25          6           0       -0.166144    2.227926    0.601644
     26          1           0        0.269035    1.951792    1.559587
     27          1           0       -0.568053    3.238312    0.675680
     28          1           0        0.645634    2.240757   -0.129196
     29          6           0       -2.028568   -2.477108   -0.068156
     30          1           0       -1.169211   -2.864412   -0.619446
     31          1           0       -2.922318   -2.937170   -0.487878
     32          1           0       -1.935569   -2.822752    0.963696
 ---------------------------------------------------------------------
                    Distance matrix (angstroms):
                    1          2          3          4          5
     1  C    0.000000
     2  H    1.093085   0.000000
     3  C    1.521264   2.131685   0.000000
     4  C    4.307517   4.756197   2.786535   0.000000
     5  C    2.525184   2.557283   1.402086   2.412045   0.000000
     6  C    2.540913   3.418330   1.404579   2.415842   2.431324
     7  C    3.807938   4.538385   2.406721   1.383071   2.779173
     8  C    3.801708   3.946221   2.410325   1.381252   1.391450
     9  H    4.675418   5.501722   3.387151   2.138553   3.862793
    10  H    4.664234   4.612613   3.390289   2.138447   2.140601
    11  H    5.390312   5.817190   3.869379   1.082849   3.392496
    12  C    1.514948   2.095195   2.543856   5.128928   3.608980
    13  C    4.303713   4.698119   5.117651   7.263558   6.094495
    14  C    2.511331   2.841752   2.992485   5.111327   3.759726
    15  C    2.531855   3.091177   3.726432   6.308795   4.901801
    16  C    3.805308   4.284495   4.866492   7.275135   6.001106
    17  C    3.792016   4.107149   4.331243   6.266624   5.110822
    18  H    2.699941   2.875468   2.708137   4.439514   3.119232
    19  H    2.728115   3.294674   4.012942   6.639643   5.227499
    20  H    4.670952   5.150196   5.795058   8.218733   6.979637
    21  H    4.650556   4.884313   4.977952   6.568512   5.571005
    22  H    5.386312   5.756255   6.167197   8.198387   7.120443
    23  O    1.421933   2.041348   2.438682   5.003299   3.490482
    24  H    1.940575   2.356486   2.493422   4.742744   3.303880
    25  C    2.986944   4.058197   2.552211   3.776847   3.830024
    26  H    2.746911   3.823997   2.791924   4.509665   4.152943
    27  H    4.032079   5.092267   3.426514   3.955071   4.567613
    28  H    3.198395   4.233659   2.976639   4.318227   4.244510
    29  C    2.960497   2.382694   2.552687   3.775251   1.509564
    30  H    2.955889   2.223499   2.891242   4.429519   2.168956
    31  H    4.034246   3.463195   3.438035   3.932729   2.144354
    32  H    2.942752   2.211225   2.898670   4.435413   2.171604
                    6          7          8          9         10
     6  C    0.000000
     7  C    1.389547   0.000000
     8  C    2.785882   2.389240   0.000000
     9  H    2.137122   1.083623   3.370825   0.000000
    10  H    3.869388   3.372041   1.083511   4.265979   0.000000
    11  H    3.394618   2.142705   2.141427   2.464740   2.465921
    12  C    3.145834   4.447387   4.782058   5.157559   5.665309
    13  C    5.342452   6.470304   7.092314   6.919954   7.932756
    14  C    3.519122   4.576356   4.759886   5.270410   5.551980
    15  C    4.096246   5.452609   6.072478   6.012151   6.991011
    16  C    5.102035   6.378404   7.106306   6.833199   8.011921
    17  C    4.653815   5.650053   6.023755   6.193676   6.792552
    18  H    3.337327   4.156576   3.985037   4.939320   4.679437
    19  H    4.356228   5.740727   6.418693   6.272800   7.350765
    20  H    5.958283   7.248235   8.095278   7.630030   9.021610
    21  H    5.261336   6.072871   6.335320   6.582427   7.009759
    22  H    6.321457   7.390362   8.071150   7.766687   8.893585
    23  O    3.061137   4.341077   4.654118   5.063745   5.535513
    24  H    3.128147   4.222914   4.359475   4.973096   5.176649
    25  C    1.506053   2.489919   4.290602   2.662419   5.373930
    26  H    2.163120   3.315439   4.835260   3.570635   5.903388
    27  H    2.142897   2.576341   4.759396   2.298450   5.819833
    28  H    2.147819   3.095618   4.771004   3.237542   5.831427
    29  C    3.833821   4.287818   2.490969   5.371319   2.663311
    30  H    4.208591   4.812821   3.223841   5.877308   3.425068
    31  H    4.575455   4.748215   2.551993   5.807459   2.257230
    32  H    4.223013   4.823348   3.227095   5.889658   3.424407
                   11         12         13         14         15
    11  H    0.000000
    12  C    6.181427   0.000000
    13  C    8.203242   2.789376   0.000000
    14  C    6.083176   1.391126   2.402323   0.000000
    15  C    7.352805   1.387705   2.406345   2.395112   0.000000
    16  C    8.275925   2.407206   1.385577   2.764088   1.387341
    17  C    7.173168   2.411380   1.387503   1.384811   2.770462
    18  H    5.359875   2.144929   3.383236   1.084197   3.377981
    19  H    7.690424   2.135642   3.387112   3.373329   1.080994
    20  H    9.216396   3.384958   2.143039   3.847107   2.140661
    21  H    7.382645   3.389519   2.146150   2.139898   3.853364
    22  H    9.097625   3.872009   1.082636   3.384687   3.387973
    23  O    6.052157   2.393096   4.971843   3.686418   2.718953
    24  H    5.743972   3.217255   5.887058   4.406661   3.673774
    25  C    4.632288   3.097159   4.831624   3.658404   3.564855
    26  H    5.421022   2.943248   4.822318   3.872078   3.108221
    27  H    4.619039   4.175373   5.683975   4.660566   4.542200
    28  H    5.161254   2.780846   3.950119   3.068735   3.159670
    29  C    4.632243   4.030338   6.451530   4.150396   5.291165
    30  H    5.310611   3.666208   5.796449   3.565084   4.925875
    31  H    4.591836   5.073521   7.393431   5.054014   6.360794
    32  H    5.314643   4.197635   6.762865   4.622254   5.290543
                   16         17         18         19         20
    16  C    0.000000
    17  C    2.395139   0.000000
    18  H    3.848179   2.141184   0.000000
    19  H    2.147368   3.851432   4.268300   0.000000
    20  H    1.083035   3.378577   4.931182   2.469537   0.000000
    21  H    3.379088   1.082922   2.460898   4.934322   4.276858
    22  H    2.145630   2.147474   4.278145   4.282483   2.472355
    23  O    4.103671   4.799923   4.062285   2.329883   4.715253
    24  H    5.058296   5.613071   4.603126   3.255981   5.666775
    25  C    4.418596   4.498020   3.880534   3.725082   5.104204
    26  H    4.111090   4.718093   4.283400   2.976338   4.665452
    27  H    5.291202   5.396999   4.827615   4.626444   5.879674
    28  H    3.724806   3.652999   3.427825   3.575551   4.444945
    29  C    6.373418   5.462061   3.503964   5.604789   7.343255
    30  H    5.856238   4.767079   2.912892   5.386385   6.848637
    31  H    7.405754   6.317272   4.276109   6.693512   8.394177
    32  H    6.479318   5.944288   4.186644   5.409706   7.361209
                   21         22         23         24         25
    21  H    0.000000
    22  H    2.476675   0.000000
    23  O    5.769895   6.023053   0.000000
    24  H    6.532174   6.948222   0.958230   0.000000
    25  C    5.225796   5.732124   3.106052   3.428667   0.000000
    26  H    5.597081   5.752621   2.402900   2.791015   1.087789
    27  H    6.048183   6.499941   4.010674   4.199967   1.089905
    28  H    4.336630   4.778576   3.568138   4.103557   1.092371
    29  C    5.886245   7.461791   3.935303   3.744024   5.104371
    30  H    5.121635   6.755157   4.129233   4.175751   5.331896
    31  H    6.616090   8.372471   4.972401   4.687514   5.954979
    32  H    6.503980   7.800931   3.580995   3.255648   5.363888
                   26         27         28         29         30
    26  H    0.000000
    27  H    1.771198   0.000000
    28  H    1.754228   1.765213   0.000000
    29  C    5.248208   5.945790   5.423406   0.000000
    30  H    5.478372   6.267534   5.440290   1.091980   0.000000
    31  H    6.186986   6.710664   6.298402   1.089318   1.759542
    32  H    5.292602   6.220092   5.787585   1.092171   1.759369
                   31         32
    31  H    0.000000
    32  H    1.758929   0.000000
 Symmetry turned off by external request.
 Stoichiometry    C15H16O
 Framework group  C1[X(C15H16O)]
 Deg. of freedom    90
 Full point group                 C1      NOp   1
 Rotational constants (GHZ):      0.9559975      0.3653354      0.3521556
 Leave Link  202 at Sat Jul 23 14:50:32 2016, MaxMem=  3221225472 cpu:         2.2
 (Enter /cm/shared/apps/gaussian/g09D01/g09/l301.exe)
 Standard basis: def2TZVP (5D, 7F)
 Ernie: Thresh=  0.10000D-02 Tol=  0.10000D-05 Strict=F.
   592 basis functions,   944 primitive gaussians,   672 cartesian basis functions
    57 alpha electrons       57 beta electrons
       nuclear repulsion energy      1063.3303971366 Hartrees.
 IExCor= 4639 DFT=T Ex+Corr=wB97XD ExCW=0 ScaHFX=  1.000000
 ScaDFX=  1.000000  1.000000  1.000000  1.000000 ScalE2=  1.000000  1.000000
 IRadAn=      0 IRanWt=     -1 IRanGd=            0 ICorTp=0 IEmpDi=121
  HFx wShort=  0.000000 wLong=  0.200000 cFull=  0.222036 cShort=  0.000000 cLong=  0.777964
  DFx wShort=  0.000000 wLong=  0.200000 cFull=  0.000000 cShort=  0.000000 cLong=  1.000000
 NAtoms=   32 NActive=   32 NUniq=   32 SFac= 1.00D+00 NAtFMM=   60 NAOKFM=F Big=F
 Integral buffers will be    131072 words long.
 Raffenetti 1 integral format.
 Two-electron integral symmetry is turned off.
 R6Disp:  Grimme-D2 Dispersion energy=       -0.0246604918 Hartrees.
 Nuclear repulsion after empirical dispersion term =     1063.3057366448 Hartrees.
 ------------------------------------------------------------------------------
 Polarizable Continuum Model (PCM)
 =================================
 Model                : PCM (using non-symmetric T matrix).
 Atomic radii         : UFF (Universal Force Field).
 Polarization charges : Total charges.
 Charge compensation  : None.
 Solution method      : On-the-fly selection.
 Cavity type          : Scaled VdW (van der Waals Surface) (Alpha=1.100).
 Cavity algorithm     : GePol (No added spheres)
                        Default sphere list used, NSphG=   32.
                        Lebedev-Laikov grids with approx.  5.0 points / Ang**2.
                        Smoothing algorithm: Karplus/York (Gamma=1.0000).
                        Polarization charges: spherical gaussians, with
                                              point-specific exponents (IZeta= 3).
                        Self-potential: point-specific (ISelfS= 7).
                        Self-field    : sphere-specific E.n sum rule (ISelfD= 2).
 1st derivatives      : Analytical E(r).r(x)/FMM algorithm (CHGder, D1EAlg=3).
                        Cavity 1st derivative terms included.
 Solvent              : Ethanol, Eps=  24.852000 Eps(inf)=   1.852593
 ------------------------------------------------------------------------------
 GePol: Number of generator spheres                  =      32
 GePol: Total number of spheres                      =      32
 GePol: Number of exposed spheres                    =      32 (100.00%)
 GePol: Number of points                             =    2252
 GePol: Average weight of points                     =       0.13
 GePol: Minimum weight of points                     =   0.13D-11
 GePol: Maximum weight of points                     =    0.20577
 GePol: Number of points with low weight             =     152
 GePol: Fraction of low-weight points (<1% of avg)   =       6.75%
 GePol: Cavity surface area                          =    293.313 Ang**2
 GePol: Cavity volume                                =    321.382 Ang**3
 Leave Link  301 at Sat Jul 23 14:50:32 2016, MaxMem=  3221225472 cpu:         5.1
 (Enter /cm/shared/apps/gaussian/g09D01/g09/l302.exe)
 NPDir=0 NMtPBC=     1 NCelOv=     1 NCel=       1 NClECP=     1 NCelD=      1
         NCelK=      1 NCelE2=     1 NClLst=     1 CellRange=     0.0.
 One-electron integrals computed using PRISM.
   1 Symmetry operations used in ECPInt.
 ECPInt:  NShTT=   28920 NPrTT=   87136 LenC2=   27076 LenP2D=   60737.
 LDataN:  DoStor=T MaxTD1= 6 Len=  172
 NBasis=   592 RedAO= T EigKep=  4.12D-06  NBF=   592
 NBsUse=   592 1.00D-06 EigRej= -1.00D+00 NBFU=   592
 Precomputing XC quadrature grid using
 IXCGrd= 4 IRadAn=           0 IRanWt=          -1 IRanGd=           0 AccXCQ= 0.00D+00.
 Generated NRdTot=       0 NPtTot=           0 NUsed=           0 NTot=          32
 NSgBfM=   664   664   664   664   665 MxSgAt=    32 MxSgA2=    32.
 Leave Link  302 at Sat Jul 23 14:50:37 2016, MaxMem=  3221225472 cpu:       138.4
 (Enter /cm/shared/apps/gaussian/g09D01/g09/l308.exe)
 Leave Link  308 at Sat Jul 23 14:50:37 2016, MaxMem=  3221225472 cpu:        13.8
 (Enter /cm/shared/apps/gaussian/g09D01/g09/l303.exe)
 DipDrv:  MaxL=1.
 Leave Link  303 at Sat Jul 23 14:50:38 2016, MaxMem=  3221225472 cpu:         8.1
 (Enter /cm/shared/apps/gaussian/g09D01/g09/l401.exe)
 ExpMin= 9.52D-02 ExpMax= 2.70D+04 ExpMxC= 9.22D+02 IAcc=2 IRadAn=         4 AccDes= 0.00D+00
 Harris functional with IExCor= 4639 and IRadAn=       4 diagonalized for initial guess.
 HarFok:  IExCor= 4639 AccDes= 0.00D+00 IRadAn=         4 IDoV= 1 UseB2=F ITyADJ=14
 ICtDFT=  3500011 ScaDFX=  1.000000  1.000000  1.000000  1.000000
 FoFCou: FMM=F IPFlag=           0 FMFlag=      100000 FMFlg1=           0
         NFxFlg=           0 DoJE=T BraDBF=F KetDBF=T FulRan=T
         wScrn=  0.000000 ICntrl=     500 IOpCl=  0 I1Cent=   200000004 NGrid=           0
         NMat0=    1 NMatS0=      1 NMatT0=    0 NMatD0=    1 NMtDS0=    0 NMtDT0=    0
 Symmetry not used in FoFCou.
 Harris En= -626.801338384067    
 JPrj=0 DoOrth=F DoCkMO=F.
 Leave Link  401 at Sat Jul 23 14:50:42 2016, MaxMem=  3221225472 cpu:       124.7
 (Enter /cm/shared/apps/gaussian/g09D01/g09/l502.exe)
 Closed shell SCF:
 Using DIIS extrapolation, IDIIS=  1040.
 Two-electron integral symmetry not used.
 IVT=     1398902 IEndB=     1398902 NGot=  3221225472 MDV=  3220295467
 LenX=  3220295467 LenY=  3219843211
 Requested convergence on RMS density matrix=1.00D-08 within 128 cycles.
 Requested convergence on MAX density matrix=1.00D-06.
 Requested convergence on             energy=1.00D-06.
 No special actions if energy rises.
 Fock matrices will be formed incrementally for  20 cycles.

 Cycle   1  Pass 1  IDiag  1:
 FoFJK:  IHMeth= 1 ICntrl=       0 DoSepK=T KAlg= 0 I1Cent=   0 FoldK=F
 IRaf=         1 NMat=   1 IRICut=       1 DoRegI=T DoRafI=F ISym2E= 0.
 FoFCou: FMM=F IPFlag=           0 FMFlag=      100000 FMFlg1=           0
         NFxFlg=           0 DoJE=T BraDBF=F KetDBF=F FulRan=T
         wScrn=  0.000000 ICntrl=     500 IOpCl=  0 I1Cent=           0 NGrid=           0
         NMat0=    1 NMatS0=      1 NMatT0=    0 NMatD0=    1 NMtDS0=    0 NMtDT0=    0
 Symmetry not used in FoFCou.
 Inv3:  Mode=1 IEnd=    15214512.
 Iteration    1 A*A^-1 deviation from unit magnitude is 6.77D-15 for    311.
 Iteration    1 A*A^-1 deviation from orthogonality  is 4.94D-15 for   2164    301.
 Iteration    1 A^-1*A deviation from unit magnitude is 6.22D-15 for    122.
 Iteration    1 A^-1*A deviation from orthogonality  is 8.89D-14 for   1175   1124.
 E= -656.305863575526    
 DIIS: error= 3.15D-02 at cycle   1 NSaved=   1.
 NSaved= 1 IEnMin= 1 EnMin= -656.305863575526     IErMin= 1 ErrMin= 3.15D-02
 ErrMax= 3.15D-02  0.00D+00 EMaxC= 1.00D-01 BMatC= 1.41D+00 BMatP= 1.41D+00
 IDIUse=3 WtCom= 6.85D-01 WtEn= 3.15D-01
 Coeff-Com:  0.100D+01
 Coeff-En:   0.100D+01
 Coeff:      0.100D+01
 Gap=     0.467 Goal=   None    Shift=    0.000
 GapD=    0.467 DampG=2.000 DampE=0.500 DampFc=1.0000 IDamp=-1.
 RMSDP=2.24D-03 MaxDP=2.29D-01              OVMax= 5.96D-02

 Cycle   2  Pass 1  IDiag  1:
 RMSU=  2.00D-03    CP:  8.67D-01
 E= -656.441830240658     Delta-E=       -0.135966665133 Rises=F Damp=F
 DIIS: error= 5.62D-03 at cycle   2 NSaved=   2.
 NSaved= 2 IEnMin= 2 EnMin= -656.441830240658     IErMin= 2 ErrMin= 5.62D-03
 ErrMax= 5.62D-03  0.00D+00 EMaxC= 1.00D-01 BMatC= 5.75D-02 BMatP= 1.41D+00
 IDIUse=3 WtCom= 9.44D-01 WtEn= 5.62D-02
 Coeff-Com:  0.103D+00 0.897D+00
 Coeff-En:   0.000D+00 0.100D+01
 Coeff:      0.969D-01 0.903D+00
 Gap=     0.385 Goal=   None    Shift=    0.000
 RMSDP=1.01D-03 MaxDP=1.11D-01 DE=-1.36D-01 OVMax= 6.80D-02

 Cycle   3  Pass 1  IDiag  1:
 RMSU=  7.96D-04    CP:  8.93D-01  7.05D-01
 E= -656.454878508297     Delta-E=       -0.013048267638 Rises=F Damp=F
 DIIS: error= 5.48D-03 at cycle   3 NSaved=   3.
 NSaved= 3 IEnMin= 3 EnMin= -656.454878508297     IErMin= 3 ErrMin= 5.48D-03
 ErrMax= 5.48D-03  0.00D+00 EMaxC= 1.00D-01 BMatC= 3.93D-02 BMatP= 5.75D-02
 IDIUse=3 WtCom= 9.45D-01 WtEn= 5.48D-02
 Coeff-Com:  0.255D-01 0.460D+00 0.514D+00
 Coeff-En:   0.000D+00 0.407D+00 0.593D+00
 Coeff:      0.241D-01 0.457D+00 0.518D+00
 Gap=     0.409 Goal=   None    Shift=    0.000
 RMSDP=6.12D-04 MaxDP=8.66D-02 DE=-1.30D-02 OVMax= 3.23D-02

 Cycle   4  Pass 1  IDiag  1:
 RMSU=  2.25D-04    CP:  8.67D-01  8.97D-01  5.37D-01
 E= -656.483957496282     Delta-E=       -0.029078987985 Rises=F Damp=F
 DIIS: error= 4.81D-04 at cycle   4 NSaved=   4.
 NSaved= 4 IEnMin= 4 EnMin= -656.483957496282     IErMin= 4 ErrMin= 4.81D-04
 ErrMax= 4.81D-04  0.00D+00 EMaxC= 1.00D-01 BMatC= 3.94D-04 BMatP= 3.93D-02
 IDIUse=3 WtCom= 9.95D-01 WtEn= 4.81D-03
 Coeff-Com:  0.886D-02 0.158D+00 0.203D+00 0.631D+00
 Coeff-En:   0.000D+00 0.000D+00 0.000D+00 0.100D+01
 Coeff:      0.882D-02 0.157D+00 0.202D+00 0.632D+00
 Gap=     0.365 Goal=   None    Shift=    0.000
 RMSDP=4.90D-05 MaxDP=2.83D-03 DE=-2.91D-02 OVMax= 2.76D-03

 Cycle   5  Pass 1  IDiag  1:
 RMSU=  3.89D-05    CP:  8.67D-01  8.99D-01  5.65D-01  9.14D-01
 E= -656.484256800316     Delta-E=       -0.000299304034 Rises=F Damp=F
 DIIS: error= 1.38D-04 at cycle   5 NSaved=   5.
 NSaved= 5 IEnMin= 5 EnMin= -656.484256800316     IErMin= 5 ErrMin= 1.38D-04
 ErrMax= 1.38D-04  0.00D+00 EMaxC= 1.00D-01 BMatC= 1.46D-05 BMatP= 3.94D-04
 IDIUse=3 WtCom= 9.99D-01 WtEn= 1.38D-03
 Coeff-Com: -0.153D-02-0.248D-01-0.191D-01 0.113D+00 0.932D+00
 Coeff-En:   0.000D+00 0.000D+00 0.000D+00 0.000D+00 0.100D+01
 Coeff:     -0.153D-02-0.248D-01-0.190D-01 0.113D+00 0.932D+00
 Gap=     0.365 Goal=   None    Shift=    0.000
 RMSDP=3.15D-05 MaxDP=2.93D-03 DE=-2.99D-04 OVMax= 1.11D-03

 Cycle   6  Pass 1  IDiag  1:
 RMSU=  1.17D-05    CP:  8.65D-01  9.07D-01  5.74D-01  9.95D-01  1.31D+00
 E= -656.484274257997     Delta-E=       -0.000017457680 Rises=F Damp=F
 DIIS: error= 2.91D-05 at cycle   6 NSaved=   6.
 NSaved= 6 IEnMin= 6 EnMin= -656.484274257997     IErMin= 6 ErrMin= 2.91D-05
 ErrMax= 2.91D-05  0.00D+00 EMaxC= 1.00D-01 BMatC= 1.51D-06 BMatP= 1.46D-05
 IDIUse=1 WtCom= 1.00D+00 WtEn= 0.00D+00
 Coeff-Com: -0.903D-03-0.149D-01-0.142D-01 0.196D-01 0.337D+00 0.674D+00
 Coeff:     -0.903D-03-0.149D-01-0.142D-01 0.196D-01 0.337D+00 0.674D+00
 Gap=     0.365 Goal=   None    Shift=    0.000
 RMSDP=6.26D-06 MaxDP=3.22D-04 DE=-1.75D-05 OVMax= 3.45D-04

 Cycle   7  Pass 1  IDiag  1:
 RMSU=  3.59D-06    CP:  8.65D-01  9.07D-01  5.75D-01  1.01D+00  1.37D+00
                    CP:  1.06D+00
 E= -656.484275894839     Delta-E=       -0.000001636843 Rises=F Damp=F
 DIIS: error= 1.15D-05 at cycle   7 NSaved=   7.
 NSaved= 7 IEnMin= 7 EnMin= -656.484275894839     IErMin= 7 ErrMin= 1.15D-05
 ErrMax= 1.15D-05  0.00D+00 EMaxC= 1.00D-01 BMatC= 1.47D-07 BMatP= 1.51D-06
 IDIUse=1 WtCom= 1.00D+00 WtEn= 0.00D+00
 Coeff-Com: -0.605D-04-0.122D-02-0.177D-02-0.915D-02-0.328D-01 0.196D+00
 Coeff-Com:  0.849D+00
 Coeff:     -0.605D-04-0.122D-02-0.177D-02-0.915D-02-0.328D-01 0.196D+00
 Coeff:      0.849D+00
 Gap=     0.365 Goal=   None    Shift=    0.000
 RMSDP=2.98D-06 MaxDP=1.66D-04 DE=-1.64D-06 OVMax= 1.83D-04

 Cycle   8  Pass 1  IDiag  1:
 RMSU=  1.22D-06    CP:  8.65D-01  9.08D-01  5.76D-01  1.01D+00  1.41D+00
                    CP:  1.18D+00  1.14D+00
 E= -656.484276110348     Delta-E=       -0.000000215509 Rises=F Damp=F
 DIIS: error= 4.23D-06 at cycle   8 NSaved=   8.
 NSaved= 8 IEnMin= 8 EnMin= -656.484276110348     IErMin= 8 ErrMin= 4.23D-06
 ErrMax= 4.23D-06  0.00D+00 EMaxC= 1.00D-01 BMatC= 1.69D-08 BMatP= 1.47D-07
 IDIUse=1 WtCom= 1.00D+00 WtEn= 0.00D+00
 Coeff-Com:  0.430D-04 0.599D-03 0.408D-03-0.502D-02-0.372D-01 0.235D-01
 Coeff-Com:  0.310D+00 0.707D+00
 Coeff:      0.430D-04 0.599D-03 0.408D-03-0.502D-02-0.372D-01 0.235D-01
 Coeff:      0.310D+00 0.707D+00
 Gap=     0.365 Goal=   None    Shift=    0.000
 RMSDP=7.53D-07 MaxDP=4.54D-05 DE=-2.16D-07 OVMax= 6.05D-05

 Cycle   9  Pass 1  IDiag  1:
 RMSU=  3.50D-07    CP:  8.65D-01  9.08D-01  5.76D-01  1.01D+00  1.42D+00
                    CP:  1.21D+00  1.25D+00  1.12D+00
 E= -656.484276133851     Delta-E=       -0.000000023502 Rises=F Damp=F
 DIIS: error= 1.68D-06 at cycle   9 NSaved=   9.
 NSaved= 9 IEnMin= 9 EnMin= -656.484276133851     IErMin= 9 ErrMin= 1.68D-06
 ErrMax= 1.68D-06  0.00D+00 EMaxC= 1.00D-01 BMatC= 1.73D-09 BMatP= 1.69D-08
 IDIUse=1 WtCom= 1.00D+00 WtEn= 0.00D+00
 Coeff-Com:  0.178D-04 0.311D-03 0.376D-03-0.196D-03-0.530D-02-0.182D-01
 Coeff-Com: -0.353D-01 0.177D+00 0.882D+00
 Coeff:      0.178D-04 0.311D-03 0.376D-03-0.196D-03-0.530D-02-0.182D-01
 Coeff:     -0.353D-01 0.177D+00 0.882D+00
 Gap=     0.365 Goal=   None    Shift=    0.000
 RMSDP=3.20D-07 MaxDP=1.83D-05 DE=-2.35D-08 OVMax= 2.59D-05

 Cycle  10  Pass 1  IDiag  1:
 RMSU=  1.18D-07    CP:  8.65D-01  9.08D-01  5.76D-01  1.01D+00  1.42D+00
                    CP:  1.21D+00  1.29D+00  1.25D+00  1.30D+00
 E= -656.484276137490     Delta-E=       -0.000000003640 Rises=F Damp=F
 DIIS: error= 6.54D-07 at cycle  10 NSaved=  10.
 NSaved=10 IEnMin=10 EnMin= -656.484276137490     IErMin=10 ErrMin= 6.54D-07
 ErrMax= 6.54D-07  0.00D+00 EMaxC= 1.00D-01 BMatC= 2.41D-10 BMatP= 1.73D-09
 IDIUse=1 WtCom= 1.00D+00 WtEn= 0.00D+00
 Coeff-Com: -0.832D-06 0.499D-05 0.561D-04 0.618D-03 0.360D-02-0.770D-02
 Coeff-Com: -0.530D-01-0.405D-01 0.266D+00 0.831D+00
 Coeff:     -0.832D-06 0.499D-05 0.561D-04 0.618D-03 0.360D-02-0.770D-02
 Coeff:     -0.530D-01-0.405D-01 0.266D+00 0.831D+00
 Gap=     0.365 Goal=   None    Shift=    0.000
 RMSDP=1.02D-07 MaxDP=8.21D-06 DE=-3.64D-09 OVMax= 1.19D-05

 Cycle  11  Pass 1  IDiag  1:
 RMSU=  4.82D-08    CP:  8.65D-01  9.08D-01  5.76D-01  1.01D+00  1.42D+00
                    CP:  1.22D+00  1.30D+00  1.30D+00  1.42D+00  1.17D+00
 E= -656.484276138013     Delta-E=       -0.000000000523 Rises=F Damp=F
 DIIS: error= 3.80D-07 at cycle  11 NSaved=  11.
 NSaved=11 IEnMin=11 EnMin= -656.484276138013     IErMin=11 ErrMin= 3.80D-07
 ErrMax= 3.80D-07  0.00D+00 EMaxC= 1.00D-01 BMatC= 4.89D-11 BMatP= 2.41D-10
 IDIUse=1 WtCom= 1.00D+00 WtEn= 0.00D+00
 Coeff-Com: -0.239D-05-0.361D-04-0.252D-04 0.307D-03 0.213D-02-0.782D-03
 Coeff-Com: -0.176D-01-0.405D-01-0.120D-01 0.333D+00 0.736D+00
 Coeff:     -0.239D-05-0.361D-04-0.252D-04 0.307D-03 0.213D-02-0.782D-03
 Coeff:     -0.176D-01-0.405D-01-0.120D-01 0.333D+00 0.736D+00
 Gap=     0.365 Goal=   None    Shift=    0.000
 RMSDP=3.14D-08 MaxDP=1.40D-06 DE=-5.23D-10 OVMax= 5.44D-06

 Cycle  12  Pass 1  IDiag  1:
 RMSU=  2.00D-08    CP:  8.65D-01  9.08D-01  5.76D-01  1.01D+00  1.42D+00
                    CP:  1.22D+00  1.30D+00  1.31D+00  1.44D+00  1.27D+00
                    CP:  1.22D+00
 E= -656.484276138102     Delta-E=       -0.000000000089 Rises=F Damp=F
 DIIS: error= 1.19D-07 at cycle  12 NSaved=  12.
 NSaved=12 IEnMin=12 EnMin= -656.484276138102     IErMin=12 ErrMin= 1.19D-07
 ErrMax= 1.19D-07  0.00D+00 EMaxC= 1.00D-01 BMatC= 4.49D-12 BMatP= 4.89D-11
 IDIUse=1 WtCom= 1.00D+00 WtEn= 0.00D+00
 Coeff-Com: -0.204D-06-0.591D-05-0.136D-04-0.403D-04-0.285D-03 0.115D-02
 Coeff-Com:  0.582D-02 0.865D-03-0.421D-01-0.816D-01 0.134D+00 0.982D+00
 Coeff:     -0.204D-06-0.591D-05-0.136D-04-0.403D-04-0.285D-03 0.115D-02
 Coeff:      0.582D-02 0.865D-03-0.421D-01-0.816D-01 0.134D+00 0.982D+00
 Gap=     0.365 Goal=   None    Shift=    0.000
 RMSDP=1.52D-08 MaxDP=7.43D-07 DE=-8.89D-11 OVMax= 2.11D-06

 Cycle  13  Pass 1  IDiag  1:
 RMSU=  8.27D-09    CP:  8.65D-01  9.08D-01  5.76D-01  1.01D+00  1.42D+00
                    CP:  1.22D+00  1.29D+00  1.30D+00  1.44D+00  1.30D+00
                    CP:  1.39D+00  1.20D+00
 E= -656.484276138183     Delta-E=       -0.000000000080 Rises=F Damp=F
 DIIS: error= 5.03D-08 at cycle  13 NSaved=  13.
 NSaved=13 IEnMin=13 EnMin= -656.484276138183     IErMin=13 ErrMin= 5.03D-08
 ErrMax= 5.03D-08  0.00D+00 EMaxC= 1.00D-01 BMatC= 1.17D-12 BMatP= 4.49D-12
 IDIUse=1 WtCom= 1.00D+00 WtEn= 0.00D+00
 Coeff-Com:  0.217D-06 0.236D-05-0.204D-05-0.556D-04-0.392D-03 0.579D-03
 Coeff-Com:  0.464D-02 0.516D-02-0.162D-01-0.812D-01-0.402D-01 0.420D+00
 Coeff-Com:  0.708D+00
 Coeff:      0.217D-06 0.236D-05-0.204D-05-0.556D-04-0.392D-03 0.579D-03
 Coeff:      0.464D-02 0.516D-02-0.162D-01-0.812D-01-0.402D-01 0.420D+00
 Coeff:      0.708D+00
 Gap=     0.365 Goal=   None    Shift=    0.000
 RMSDP=4.81D-09 MaxDP=2.42D-07 DE=-8.05D-11 OVMax= 7.88D-07

 Error on total polarization charges =  0.01570
 SCF Done:  E(RwB97XD) =  -656.484276138     A.U. after   13 cycles
            NFock= 13  Conv=0.48D-08     -V/T= 2.0049
 KE= 6.532713809879D+02 PE=-3.652799626278D+03 EE= 1.279738232507D+03
 Leave Link  502 at Sat Jul 23 14:57:24 2016, MaxMem=  3221225472 cpu:     12406.5
 (Enter /cm/shared/apps/gaussian/g09D01/g09/l801.exe)
 DoSCS=F DFT=T ScalE2(SS,OS)=  1.000000  1.000000
 ExpMin= 9.52D-02 ExpMax= 2.70D+04 ExpMxC= 9.22D+02 IAcc=3 IRadAn=         5 AccDes= 0.00D+00
 HarFok:  IExCor=  205 AccDes= 0.00D+00 IRadAn=         5 IDoV=-2 UseB2=F ITyADJ=14
 ICtDFT= 12500011 ScaDFX=  1.000000  1.000000  1.000000  1.000000
 Largest valence mixing into a core orbital is  6.77D-05
 Largest core mixing into a valence orbital is  1.96D-05
 Range of M.O.s used for correlation:    17   592
 NBasis=   592 NAE=    57 NBE=    57 NFC=    16 NFV=     0
 NROrb=    576 NOA=    41 NOB=    41 NVA=   535 NVB=   535

 **** Warning!!: The largest alpha MO coefficient is  0.55064739D+02

 Leave Link  801 at Sat Jul 23 14:57:26 2016, MaxMem=  3221225472 cpu:        44.3
 (Enter /cm/shared/apps/gaussian/g09D01/g09/l914.exe)
 RHF ground state
 MDV=  3221225472 DFT=T DoStab=F Mixed=T DoRPA=T DoScal=F NonHer=T
 Would need an additional         93074000000 words for in-memory AO integral storage.
 NEqPCM:  Using equilibrium solvation (IEInf=0, Eps=  24.8520, EpsInf=   1.8526)
 Making orbital integer symmetry assigments:
    64 initial guesses have been made.
 Convergence on wavefunction:    0.000001000000000
 Davidson Disk Diagonalization:  ConvIn= 1.00D-06 SkipCon=T Conv= 1.00D-06.
 Max sub-space:   256 roots to seek:    64 dimension of matrix:        43870
 Iteration     1 Dimension    64 NMult     0 NNew     64
 CISAX will form    64 AO SS matrices at one time.
 NMat=    64 NSing=    64 JSym2X= 0.
 FoFJK:  IHMeth= 1 ICntrl=       0 DoSepK=T KAlg= 0 I1Cent=   0 FoldK=F
 IRaf=         1 NMat= 128 IRICut=       1 DoRegI=T DoRafI=F ISym2E= 0.
 FoFCou: FMM=F IPFlag=           0 FMFlag=      100000 FMFlg1=           0
         NFxFlg=           0 DoJE=F BraDBF=F KetDBF=F FulRan=T
         wScrn=  0.000000 ICntrl=     500 IOpCl=  0 I1Cent=           0 NGrid=           0
         NMat0=   64 NMatS0=     64 NMatT0=    0 NMatD0=   64 NMtDS0=    0 NMtDT0=    0
 Symmetry not used in FoFCou.
 New state      2 was old state     13
 New state      3 was old state      2
 New state      5 was old state      3
 New state      6 was old state      8
 New state      7 was old state      9
 New state      8 was old state      5
 New state      9 was old state      6
 New state     10 was old state      7
 New state     12 was old state     10
 New state     13 was old state     14
 New state     14 was old state     12
 New state     15 was old state     17
 New state     16 was old state     20
 Excitation Energies [eV] at current iteration:
 Root      1 :     5.419207514186605
 Root      2 :     5.571042204930815
 Root      3 :     6.509123768894622
 Root      4 :     6.599248741327978
 Root      5 :     6.739699920496262
 Root      6 :     6.996090313467357
 Root      7 :     7.122212895759752
 Root      8 :     7.144574494474062
 Root      9 :     7.187471711639844
 Root     10 :     7.275450037480036
 Root     11 :     7.439476812153236
 Root     12 :     7.453260547455544
 Root     13 :     7.497019416539434
 Root     14 :     7.511370212066544
 Root     15 :     7.610683969365105
 Root     16 :     7.774405156652101
 Root     17 :     7.846358215764594
 Root     18 :     7.974139517154712
 Root     19 :     7.982740226649772
 Root     20 :     8.004486042284652
 Root     21 :     8.054954506264492
 Root     22 :     8.081939482728675
 Root     23 :     8.118218249046276
 Root     24 :     8.168127438060447
 Root     25 :     8.189082298314965
 Root     26 :     8.237991959492119
 Root     27 :     8.270189480308112
 Root     28 :     8.308022106792260
 Root     29 :     8.372189173455585
 Root     30 :     8.498765975220964
 Root     31 :     8.581734865628984
 Root     32 :     8.598591095114646
 Root     33 :     8.711976179584601
 Root     34 :     8.790782296462462
 Root     35 :     8.828545196327955
 Root     36 :     8.920165694849779
 Root     37 :     9.010417652861742
 Root     38 :     9.106527019925180
 Root     39 :     9.128877221985620
 Root     40 :     9.177888863116236
 Root     41 :     9.198791843599965
 Root     42 :     9.271552547542830
 Root     43 :     9.385904098828162
 Root     44 :     9.468436588184231
 Root     45 :     9.512853176718167
 Root     46 :     9.594789024375817
 Root     47 :     9.634919803958420
 Root     48 :     9.690059542719180
 Root     49 :     9.741884308186505
 Root     50 :     9.776564692243200
 Root     51 :     9.799020514409641
 Root     52 :     9.900066354756438
 Root     53 :     9.906183089234194
 Root     54 :     9.963755681991451
 Root     55 :    10.011905403782440
 Root     56 :    10.164829422723760
 Root     57 :    10.248991589459290
 Root     58 :    10.299710477965190
 Root     59 :    10.319575521088500
 Root     60 :    10.418905778319190
 Root     61 :    10.452251349204100
 Root     62 :    10.521308808363950
 Root     63 :    10.761335900109190
 Root     64 :    10.795647297375790
 Iteration     2 Dimension    96 NMult    64 NNew     32
 CISAX will form    32 AO SS matrices at one time.
 NMat=    32 NSing=    32 JSym2X= 0.
 Root      1 not converged, maximum delta is    0.026623721855050
 Root      2 not converged, maximum delta is    0.013613476081196
 Root      3 not converged, maximum delta is    0.173866699523842
 New state      4 was old state      5
 Root      4 not converged, maximum delta is    0.101064378010081
 New state      5 was old state      8
 Root      5 not converged, maximum delta is    0.330344148091976
 New state      6 was old state      4
 Root      6 not converged, maximum delta is    0.311038703990606
 New state      7 was old state     14
 Root      7 not converged, maximum delta is    0.422572882813447
 New state      8 was old state     13
 Root      8 not converged, maximum delta is    0.214553384127125
 New state      9 was old state     15
 Root      9 not converged, maximum delta is    0.325310484349791
 New state     10 was old state      6
 Root     10 not converged, maximum delta is    0.128959448334877
 New state     11 was old state      7
 Root     11 not converged, maximum delta is    0.229779018016087
 New state     12 was old state      9
 Root     12 not converged, maximum delta is    0.320979964833820
 New state     13 was old state     10
 Root     13 not converged, maximum delta is    0.238974933314269
 New state     14 was old state     12
 Root     14 not converged, maximum delta is    0.058688424762934
 New state     15 was old state     11
 Root     15 not converged, maximum delta is    0.291460222288062
 Root     16 not converged, maximum delta is    0.140314386854234
 Excitation Energies [eV] at current iteration:
 Root      1 :     5.281770819918720   Change is   -0.137436694267885
 Root      2 :     5.454986732948047   Change is   -0.116055471982767
 Root      3 :     5.843099379466079   Change is   -0.666024389428542
 Root      4 :     6.038039587695864   Change is   -0.701660332800399
 Root      5 :     6.345353347571932   Change is   -0.799221146902130
 Root      6 :     6.425873293824170   Change is   -0.173375447503809
 Root      7 :     6.437091155341396   Change is   -1.074279056725149
 Root      8 :     6.592516831403525   Change is   -0.904502585135909
 Root      9 :     6.721098665627344   Change is   -0.889585303737761
 Root     10 :     6.916549453770222   Change is   -0.079540859697134
 Root     11 :     7.046004799069693   Change is   -0.076208096690059
 Root     12 :     7.134240080183132   Change is   -0.053231631456712
 Root     13 :     7.172090298654203   Change is   -0.103359738825834
 Root     14 :     7.380513066287906   Change is   -0.072747481167638
 Root     15 :     7.405881175254654   Change is   -0.033595636898583
 Root     16 :     7.489588045585069   Change is   -0.284817111067033
 Iteration     3 Dimension   128 NMult    96 NNew     32
 CISAX will form    32 AO SS matrices at one time.
 NMat=    32 NSing=    32 JSym2X= 0.
 Root      1 not converged, maximum delta is    0.004575322682021
 Root      2 not converged, maximum delta is    0.002250185470020
 Root      3 not converged, maximum delta is    0.004791631304555
 Root      4 not converged, maximum delta is    0.004236815301622
 Root      5 not converged, maximum delta is    0.011805149977302
 Root      6 not converged, maximum delta is    0.175858493393712
 Root      7 not converged, maximum delta is    0.126523540377853
 Root      8 not converged, maximum delta is    0.009136408283656
 Root      9 not converged, maximum delta is    0.018021620510586
 Root     10 not converged, maximum delta is    0.012073313111628
 Root     11 not converged, maximum delta is    0.019757869538778
 Root     12 not converged, maximum delta is    0.018789253535098
 Root     13 not converged, maximum delta is    0.004495095461163
 Root     14 not converged, maximum delta is    0.007508040816620
 Root     15 not converged, maximum delta is    0.013065033075885
 Root     16 not converged, maximum delta is    0.026574786271156
 Excitation Energies [eV] at current iteration:
 Root      1 :     5.276763933597470   Change is   -0.005006886321249
 Root      2 :     5.451599474725938   Change is   -0.003387258222109
 Root      3 :     5.828246967362629   Change is   -0.014852412103450
 Root      4 :     6.023249836229902   Change is   -0.014789751465961
 Root      5 :     6.317047527483898   Change is   -0.028305820088035
 Root      6 :     6.394866570395284   Change is   -0.031006723428885
 Root      7 :     6.425406437692556   Change is   -0.011684717648840
 Root      8 :     6.558654320405487   Change is   -0.033862510998038
 Root      9 :     6.671042947304594   Change is   -0.050055718322751
 Root     10 :     6.909711403914352   Change is   -0.006838049855870
 Root     11 :     7.033403728399689   Change is   -0.012601070670004
 Root     12 :     7.125163620290934   Change is   -0.009076459892198
 Root     13 :     7.168827235697296   Change is   -0.003263062956906
 Root     14 :     7.377527476760364   Change is   -0.002985589527542
 Root     15 :     7.400576226055144   Change is   -0.005304949199510
 Root     16 :     7.468955588544617   Change is   -0.020632457040452
 Iteration     4 Dimension   160 NMult   128 NNew     32
 CISAX will form    32 AO SS matrices at one time.
 NMat=    32 NSing=    32 JSym2X= 0.
 Root      1 not converged, maximum delta is    0.001172846020647
 Root      2 not converged, maximum delta is    0.000676335655964
 Root      3 not converged, maximum delta is    0.001013569722722
 Root      4 not converged, maximum delta is    0.001055115989274
 Root      5 not converged, maximum delta is    0.000835503644852
 Root      6 not converged, maximum delta is    0.001460636643374
 Root      7 not converged, maximum delta is    0.001394755529594
 Root      8 not converged, maximum delta is    0.002330599850539
 Root      9 not converged, maximum delta is    0.002601530774581
 Root     10 not converged, maximum delta is    0.001487203376063
 Root     11 not converged, maximum delta is    0.005215763561666
 Root     12 not converged, maximum delta is    0.003182396930465
 Root     13 not converged, maximum delta is    0.001043012648802
 Root     14 not converged, maximum delta is    0.004369804798072
 Root     15 not converged, maximum delta is    0.003951158307546
 Root     16 not converged, maximum delta is    0.015618785205691
 Excitation Energies [eV] at current iteration:
 Root      1 :     5.276540770675036   Change is   -0.000223162922434
 Root      2 :     5.451405909187312   Change is   -0.000193565538627
 Root      3 :     5.827258310349523   Change is   -0.000988657013107
 Root      4 :     6.022361959162367   Change is   -0.000887877067535
 Root      5 :     6.315601001460400   Change is   -0.001446526023498
 Root      6 :     6.393415548496734   Change is   -0.001451021898550
 Root      7 :     6.424654888356339   Change is   -0.000751549336217
 Root      8 :     6.556597188450478   Change is   -0.002057131955008
 Root      9 :     6.665994850127861   Change is   -0.005048097176732
 Root     10 :     6.909032540178278   Change is   -0.000678863736074
 Root     11 :     7.031829342782657   Change is   -0.001574385617031
 Root     12 :     7.124208798504833   Change is   -0.000954821786100
 Root     13 :     7.168514849159791   Change is   -0.000312386537505
 Root     14 :     7.377007969900178   Change is   -0.000519506860187
 Root     15 :     7.399954612433257   Change is   -0.000621613621887
 Root     16 :     7.464619047861971   Change is   -0.004336540682645
 Iteration     5 Dimension   192 NMult   160 NNew     32
 CISAX will form    32 AO SS matrices at one time.
 NMat=    32 NSing=    32 JSym2X= 0.
 Root      1 not converged, maximum delta is    0.000292336876174
 Root      2 not converged, maximum delta is    0.000238377707545
 Root      3 not converged, maximum delta is    0.000264791475056
 Root      4 not converged, maximum delta is    0.000195349094215
 Root      5 not converged, maximum delta is    0.000283598966717
 Root      6 not converged, maximum delta is    0.000416246437376
 Root      7 not converged, maximum delta is    0.000461021187353
 Root      8 not converged, maximum delta is    0.000516577294420
 Root      9 not converged, maximum delta is    0.000839633128825
 Root     10 not converged, maximum delta is    0.000409561953132
 Root     11 not converged, maximum delta is    0.001303294464969
 Root     12 not converged, maximum delta is    0.000756713377818
 Root     13 not converged, maximum delta is    0.000245507066797
 Root     14 not converged, maximum delta is    0.001810748816579
 Root     15 not converged, maximum delta is    0.000926366873137
 Root     16 not converged, maximum delta is    0.004931016612291
 Excitation Energies [eV] at current iteration:
 Root      1 :     5.276530243344213   Change is   -0.000010527330824
 Root      2 :     5.451396647119605   Change is   -0.000009262067707
 Root      3 :     5.827210282674857   Change is   -0.000048027674666
 Root      4 :     6.022316847864225   Change is   -0.000045111298142
 Root      5 :     6.315521601303404   Change is   -0.000079400156996
 Root      6 :     6.393344599848624   Change is   -0.000070948648110
 Root      7 :     6.424605139329843   Change is   -0.000049749026496
 Root      8 :     6.556478291211056   Change is   -0.000118897239422
 Root      9 :     6.665693911335763   Change is   -0.000300938792099
 Root     10 :     6.908980196929678   Change is   -0.000052343248600
 Root     11 :     7.031683729944787   Change is   -0.000145612837871
 Root     12 :     7.124127665869080   Change is   -0.000081132635753
 Root     13 :     7.168495640857361   Change is   -0.000019208302430
 Root     14 :     7.376931776898760   Change is   -0.000076193001417
 Root     15 :     7.399883650958951   Change is   -0.000070961474306
 Root     16 :     7.463980612042212   Change is   -0.000638435819760
 Iteration     6 Dimension   224 NMult   192 NNew     32
 CISAX will form    32 AO SS matrices at one time.
 NMat=    32 NSing=    32 JSym2X= 0.
 Root      1 not converged, maximum delta is    0.000042314428489
 Root      2 not converged, maximum delta is    0.000059606884810
 Root      3 not converged, maximum delta is    0.000052721775004
 Root      4 not converged, maximum delta is    0.000046581598009
 Root      5 not converged, maximum delta is    0.000078657531160
 Root      6 not converged, maximum delta is    0.000113972183551
 Root      7 not converged, maximum delta is    0.000110402041061
 Root      8 not converged, maximum delta is    0.000158487718092
 Root      9 not converged, maximum delta is    0.000260506332169
 Root     10 not converged, maximum delta is    0.000133915488605
 Root     11 not converged, maximum delta is    0.000299639668012
 Root     12 not converged, maximum delta is    0.000203671153213
 Root     13 not converged, maximum delta is    0.000104063226071
 Root     14 not converged, maximum delta is    0.000439783627190
 Root     15 not converged, maximum delta is    0.000272565671646
 Root     16 not converged, maximum delta is    0.001160565891276
 Excitation Energies [eV] at current iteration:
 Root      1 :     5.276529783400281   Change is   -0.000000459943932
 Root      2 :     5.451396182684907   Change is   -0.000000464434698
 Root      3 :     5.827208195402178   Change is   -0.000002087272679
 Root      4 :     6.022314582737056   Change is   -0.000002265127169
 Root      5 :     6.315518168407073   Change is   -0.000003432896331
 Root      6 :     6.393340867238996   Change is   -0.000003732609628
 Root      7 :     6.424602034534301   Change is   -0.000003104795542
 Root      8 :     6.556470955948844   Change is   -0.000007335262213
 Root      9 :     6.665676176479748   Change is   -0.000017734856014
 Root     10 :     6.908975988338584   Change is   -0.000004208591095
 Root     11 :     7.031670440775061   Change is   -0.000013289169726
 Root     12 :     7.124120610375209   Change is   -0.000007055493871
 Root     13 :     7.168494065668079   Change is   -0.000001575189281
 Root     14 :     7.376922957827251   Change is   -0.000008819071510
 Root     15 :     7.399875764273292   Change is   -0.000007886685659
 Root     16 :     7.463910865659146   Change is   -0.000069746383065
 Iteration     7 Dimension   256 NMult   224 NNew     32
 CISAX will form    32 AO SS matrices at one time.
 NMat=    32 NSing=    32 JSym2X= 0.
 Root      1 not converged, maximum delta is    0.000005582804094
 Root      2 not converged, maximum delta is    0.000007248352243
 Root      3 not converged, maximum delta is    0.000011147228506
 Root      4 not converged, maximum delta is    0.000008255462740
 Root      5 not converged, maximum delta is    0.000021225941508
 Root      6 not converged, maximum delta is    0.000020547577460
 Root      7 not converged, maximum delta is    0.000027208337976
 Root      8 not converged, maximum delta is    0.000044416632042
 Root      9 not converged, maximum delta is    0.000055542755747
 Root     10 not converged, maximum delta is    0.000029104164017
 Root     11 not converged, maximum delta is    0.000059165969953
 Root     12 not converged, maximum delta is    0.000042945035781
 Root     13 not converged, maximum delta is    0.000054253814334
 Root     14 not converged, maximum delta is    0.000104085004736
 Root     15 not converged, maximum delta is    0.000062479250025
 Root     16 not converged, maximum delta is    0.000267547893654
 Excitation Energies [eV] at current iteration:
 Root      1 :     5.276529767633183   Change is   -0.000000015767098
 Root      2 :     5.451396163421157   Change is   -0.000000019263750
 Root      3 :     5.827208101888361   Change is   -0.000000093513816
 Root      4 :     6.022314480502956   Change is   -0.000000102234099
 Root      5 :     6.315517974578229   Change is   -0.000000193828844
 Root      6 :     6.393340657719297   Change is   -0.000000209519698
 Root      7 :     6.424601855369753   Change is   -0.000000179164548
 Root      8 :     6.556470497823680   Change is   -0.000000458125163
 Root      9 :     6.665674987349901   Change is   -0.000001189129847
 Root     10 :     6.908975709827518   Change is   -0.000000278511065
 Root     11 :     7.031669607564674   Change is   -0.000000833210388
 Root     12 :     7.124120116861062   Change is   -0.000000493514148
 Root     13 :     7.168493913674473   Change is   -0.000000151993606
 Root     14 :     7.376922133101418   Change is   -0.000000824725832
 Root     15 :     7.399875089424679   Change is   -0.000000674848613
 Root     16 :     7.463904311550375   Change is   -0.000006554108771
 Davidson failed to converge within maximum sub-space dimensions.
  Restart with updated initial guess:
 Iteration     1 Dimension    64 NMult   256 NNew     64
 CISAX will form    64 AO SS matrices at one time.
 NMat=    64 NSing=    64 JSym2X= 0.
 Excitation Energies [eV] at current iteration:
 Root      1 :     5.276529767175229
 Root      2 :     5.451396162870220
 Root      3 :     5.827208098131146
 Root      4 :     6.022314476378353
 Root      5 :     6.315517965261868
 Root      6 :     6.393340648102225
 Root      7 :     6.424601846115966
 Root      8 :     6.556470474290824
 Root      9 :     6.665674927107876
 Root     10 :     6.908975693336152
 Root     11 :     7.031669559415396
 Root     12 :     7.124120084003088
 Root     13 :     7.168493900547499
 Root     14 :     7.376922079836130
 Root     15 :     7.399875041554284
 Root     16 :     7.463903864251304
 Iteration     2 Dimension    96 NMult   320 NNew     32
 CISAX will form    32 AO SS matrices at one time.
 NMat=    32 NSing=    32 JSym2X= 0.
 Root      1 has converged.
 Root      2 has converged.
 Root      3 has converged.
 Root      4 has converged.
 Root      5 not converged, maximum delta is    0.000001720722772
 Root      6 not converged, maximum delta is    0.000001797586219
 Root      7 not converged, maximum delta is    0.000002669839819
 Root      8 not converged, maximum delta is    0.000004435363693
 Root      9 not converged, maximum delta is    0.000005652310534
 Root     10 not converged, maximum delta is    0.000002809143174
 Root     11 not converged, maximum delta is    0.000005472817702
 Root     12 not converged, maximum delta is    0.000004904927188
 Root     13 not converged, maximum delta is    0.000007814593145
 Root     14 not converged, maximum delta is    0.000008430738498
 Root     15 not converged, maximum delta is    0.000005028342866
 Root     16 not converged, maximum delta is    0.000029111150453
 Excitation Energies [eV] at current iteration:
 Root      1 :     5.276529767146282   Change is   -0.000000000028947
 Root      2 :     5.451396162835747   Change is   -0.000000000034473
 Root      3 :     5.827208097848572   Change is   -0.000000000282574
 Root      4 :     6.022314475973098   Change is   -0.000000000405255
 Root      5 :     6.315517964280445   Change is   -0.000000000981423
 Root      6 :     6.393340647115762   Change is   -0.000000000986463
 Root      7 :     6.424601844987714   Change is   -0.000000001128251
 Root      8 :     6.556470471529496   Change is   -0.000000002761327
 Root      9 :     6.665674920114890   Change is   -0.000000006992986
 Root     10 :     6.908975691107176   Change is   -0.000000002228976
 Root     11 :     7.031669553002230   Change is   -0.000000006413166
 Root     12 :     7.124120079031568   Change is   -0.000000004971520
 Root     13 :     7.168493898282603   Change is   -0.000000002264897
 Root     14 :     7.376922072137237   Change is   -0.000000007698893
 Root     15 :     7.399875034022283   Change is   -0.000000007532002
 Root     16 :     7.463903789216192   Change is   -0.000000075035112
 Iteration     3 Dimension   120 NMult   352 NNew     24
 CISAX will form    24 AO SS matrices at one time.
 NMat=    24 NSing=    24 JSym2X= 0.
 Root      1 has converged.
 Root      2 has converged.
 Root      3 has converged.
 Root      4 has converged.
 Root      5 has converged.
 Root      6 has converged.
 Root      7 has converged.
 Root      8 not converged, maximum delta is    0.000001115307214
 Root      9 not converged, maximum delta is    0.000001521673091
 Root     10 not converged, maximum delta is    0.000001338176792
 Root     11 not converged, maximum delta is    0.000004362763583
 Root     12 not converged, maximum delta is    0.000004396755600
 Root     13 not converged, maximum delta is    0.000002848468426
 Root     14 not converged, maximum delta is    0.000002933880516
 Root     15 not converged, maximum delta is    0.000006087685831
 Root     16 not converged, maximum delta is    0.000013062862915
 Excitation Energies [eV] at current iteration:
 Root      1 :     5.276529767145612   Change is   -0.000000000000670
 Root      2 :     5.451396162834541   Change is   -0.000000000001206
 Root      3 :     5.827208097842195   Change is   -0.000000000006377
 Root      4 :     6.022314475962259   Change is   -0.000000000010839
 Root      5 :     6.315517964187531   Change is   -0.000000000092914
 Root      6 :     6.393340647015351   Change is   -0.000000000100411
 Root      7 :     6.424601844879962   Change is   -0.000000000107753
 Root      8 :     6.556470471264999   Change is   -0.000000000264497
 Root      9 :     6.665674919454805   Change is   -0.000000000660085
 Root     10 :     6.908975690826677   Change is   -0.000000000280499
 Root     11 :     7.031669552145300   Change is   -0.000000000856930
 Root     12 :     7.124120078296916   Change is   -0.000000000734652
 Root     13 :     7.168493897933796   Change is   -0.000000000348807
 Root     14 :     7.376922070977673   Change is   -0.000000001159564
 Root     15 :     7.399875032484076   Change is   -0.000000001538207
 Root     16 :     7.463903777594640   Change is   -0.000000011621552
 Iteration     4 Dimension   138 NMult   376 NNew     18
 CISAX will form    18 AO SS matrices at one time.
 NMat=    18 NSing=    18 JSym2X= 0.
 Root      1 has converged.
 Root      2 has converged.
 Root      3 has converged.
 Root      4 has converged.
 Root      5 has converged.
 Root      6 has converged.
 Root      7 has converged.
 Root      8 has converged.
 Root      9 has converged.
 Root     10 has converged.
 Root     11 not converged, maximum delta is    0.000003419227199
 Root     12 not converged, maximum delta is    0.000003619731451
 Root     13 not converged, maximum delta is    0.000001268846063
 Root     14 not converged, maximum delta is    0.000003479685142
 Root     15 not converged, maximum delta is    0.000007512670773
 Root     16 not converged, maximum delta is    0.000011967034961
 Excitation Energies [eV] at current iteration:
 Root      1 :     5.276529767144678   Change is   -0.000000000000934
 Root      2 :     5.451396162834948   Change is    0.000000000000407
 Root      3 :     5.827208097841080   Change is   -0.000000000001115
 Root      4 :     6.022314475962082   Change is   -0.000000000000177
 Root      5 :     6.315517964181465   Change is   -0.000000000006066
 Root      6 :     6.393340647015364   Change is    0.000000000000013
 Root      7 :     6.424601844875406   Change is   -0.000000000004555
 Root      8 :     6.556470471231748   Change is   -0.000000000033251
 Root      9 :     6.665674919352441   Change is   -0.000000000102364
 Root     10 :     6.908975690774240   Change is   -0.000000000052437
 Root     11 :     7.031669551946775   Change is   -0.000000000198525
 Root     12 :     7.124120078114156   Change is   -0.000000000182760
 Root     13 :     7.168493897874288   Change is   -0.000000000059508
 Root     14 :     7.376922070658424   Change is   -0.000000000319250
 Root     15 :     7.399875031709024   Change is   -0.000000000775053
 Root     16 :     7.463903775090825   Change is   -0.000000002503815
 Iteration     5 Dimension   150 NMult   394 NNew     12
 CISAX will form    12 AO SS matrices at one time.
 NMat=    12 NSing=    12 JSym2X= 0.
 Root      1 has converged.
 Root      2 has converged.
 Root      3 has converged.
 Root      4 has converged.
 Root      5 has converged.
 Root      6 has converged.
 Root      7 has converged.
 Root      8 has converged.
 Root      9 has converged.
 Root     10 has converged.
 Root     11 not converged, maximum delta is    0.000002268338163
 Root     12 not converged, maximum delta is    0.000002727993271
 Root     13 not converged, maximum delta is    0.000001186628687
 Root     14 not converged, maximum delta is    0.000003641988486
 Root     15 not converged, maximum delta is    0.000008583878496
 Root     16 not converged, maximum delta is    0.000015743281250
 Excitation Energies [eV] at current iteration:
 Root      1 :     5.276529767144568   Change is   -0.000000000000110
 Root      2 :     5.451396162834812   Change is   -0.000000000000136
 Root      3 :     5.827208097839542   Change is   -0.000000000001538
 Root      4 :     6.022314475960198   Change is   -0.000000000001884
 Root      5 :     6.315517964178745   Change is   -0.000000000002720
 Root      6 :     6.393340647013217   Change is   -0.000000000002147
 Root      7 :     6.424601844874651   Change is   -0.000000000000755
 Root      8 :     6.556470471230806   Change is   -0.000000000000941
 Root      9 :     6.665674919349567   Change is   -0.000000000002874
 Root     10 :     6.908975690770610   Change is   -0.000000000003630
 Root     11 :     7.031669551882603   Change is   -0.000000000064172
 Root     12 :     7.124120078046778   Change is   -0.000000000067377
 Root     13 :     7.168493897854448   Change is   -0.000000000019839
 Root     14 :     7.376922070476689   Change is   -0.000000000181734
 Root     15 :     7.399875031211582   Change is   -0.000000000497442
 Root     16 :     7.463903773826306   Change is   -0.000000001264519
 Iteration     6 Dimension   162 NMult   406 NNew     12
 CISAX will form    12 AO SS matrices at one time.
 NMat=    12 NSing=    12 JSym2X= 0.
 Root      1 has converged.
 Root      2 has converged.
 Root      3 has converged.
 Root      4 has converged.
 Root      5 has converged.
 Root      6 has converged.
 Root      7 has converged.
 Root      8 has converged.
 Root      9 has converged.
 Root     10 has converged.
 Root     11 not converged, maximum delta is    0.000001085792940
 Root     12 not converged, maximum delta is    0.000001563764260
 Root     13 has converged.
 Root     14 not converged, maximum delta is    0.000003429184035
 Root     15 not converged, maximum delta is    0.000006706738996
 Root     16 not converged, maximum delta is    0.000014680664421
 Excitation Energies [eV] at current iteration:
 Root      1 :     5.276529767145830   Change is    0.000000000001262
 Root      2 :     5.451396162835084   Change is    0.000000000000272
 Root      3 :     5.827208097838795   Change is   -0.000000000000748
 Root      4 :     6.022314475960061   Change is   -0.000000000000137
 Root      5 :     6.315517964180293   Change is    0.000000000001548
 Root      6 :     6.393340647011211   Change is   -0.000000000002006
 Root      7 :     6.424601844875176   Change is    0.000000000000525
 Root      8 :     6.556470471229403   Change is   -0.000000000001404
 Root      9 :     6.665674919349728   Change is    0.000000000000161
 Root     10 :     6.908975690769968   Change is   -0.000000000000642
 Root     11 :     7.031669551861010   Change is   -0.000000000021593
 Root     12 :     7.124120078018495   Change is   -0.000000000028283
 Root     13 :     7.168493897844471   Change is   -0.000000000009977
 Root     14 :     7.376922070375715   Change is   -0.000000000100975
 Root     15 :     7.399875030933027   Change is   -0.000000000278555
 Root     16 :     7.463903773072055   Change is   -0.000000000754251
 Iteration     7 Dimension   172 NMult   418 NNew     10
 CISAX will form    10 AO SS matrices at one time.
 NMat=    10 NSing=    10 JSym2X= 0.
 Root      1 has converged.
 Root      2 has converged.
 Root      3 has converged.
 Root      4 has converged.
 Root      5 has converged.
 Root      6 has converged.
 Root      7 has converged.
 Root      8 has converged.
 Root      9 has converged.
 Root     10 has converged.
 Root     11 has converged.
 Root     12 has converged.
 Root     13 has converged.
 Root     14 not converged, maximum delta is    0.000002088560669
 Root     15 not converged, maximum delta is    0.000003357691111
 Root     16 not converged, maximum delta is    0.000008429119600
 Excitation Energies [eV] at current iteration:
 Root      1 :     5.276529767146251   Change is    0.000000000000421
 Root      2 :     5.451396162835279   Change is    0.000000000000196
 Root      3 :     5.827208097838993   Change is    0.000000000000198
 Root      4 :     6.022314475960103   Change is    0.000000000000042
 Root      5 :     6.315517964180802   Change is    0.000000000000508
 Root      6 :     6.393340647011211   Change is    0.000000000000000
 Root      7 :     6.424601844873129   Change is   -0.000000000002048
 Root      8 :     6.556470471229955   Change is    0.000000000000552
 Root      9 :     6.665674919349284   Change is   -0.000000000000444
 Root     10 :     6.908975690768302   Change is   -0.000000000001666
 Root     11 :     7.031669551851119   Change is   -0.000000000009891
 Root     12 :     7.124120078007546   Change is   -0.000000000010950
 Root     13 :     7.168493897844322   Change is   -0.000000000000150
 Root     14 :     7.376922070320719   Change is   -0.000000000054996
 Root     15 :     7.399875030813535   Change is   -0.000000000119491
 Root     16 :     7.463903772753443   Change is   -0.000000000318613
 Iteration     8 Dimension   178 NMult   428 NNew      6
 CISAX will form     6 AO SS matrices at one time.
 NMat=     6 NSing=     6 JSym2X= 0.
 Root      1 has converged.
 Root      2 has converged.
 Root      3 has converged.
 Root      4 has converged.
 Root      5 has converged.
 Root      6 has converged.
 Root      7 has converged.
 Root      8 has converged.
 Root      9 has converged.
 Root     10 has converged.
 Root     11 has converged.
 Root     12 has converged.
 Root     13 has converged.
 Root     14 not converged, maximum delta is    0.000001184097386
 Root     15 not converged, maximum delta is    0.000001193770193
 Root     16 not converged, maximum delta is    0.000004048927878
 Excitation Energies [eV] at current iteration:
 Root      1 :     5.276529767146126   Change is   -0.000000000000125
 Root      2 :     5.451396162836095   Change is    0.000000000000815
 Root      3 :     5.827208097838950   Change is   -0.000000000000042
 Root      4 :     6.022314475959816   Change is   -0.000000000000287
 Root      5 :     6.315517964180046   Change is   -0.000000000000755
 Root      6 :     6.393340647009849   Change is   -0.000000000001363
 Root      7 :     6.424601844873219   Change is    0.000000000000090
 Root      8 :     6.556470471231133   Change is    0.000000000001178
 Root      9 :     6.665674919350000   Change is    0.000000000000715
 Root     10 :     6.908975690768446   Change is    0.000000000000144
 Root     11 :     7.031669551850137   Change is   -0.000000000000982
 Root     12 :     7.124120078005964   Change is   -0.000000000001582
 Root     13 :     7.168493897843783   Change is   -0.000000000000539
 Root     14 :     7.376922070290999   Change is   -0.000000000029720
 Root     15 :     7.399875030772964   Change is   -0.000000000040571
 Root     16 :     7.463903772631594   Change is   -0.000000000121849
 Iteration     9 Dimension   184 NMult   434 NNew      6
 CISAX will form     6 AO SS matrices at one time.
 NMat=     6 NSing=     6 JSym2X= 0.
 Root      1 has converged.
 Root      2 has converged.
 Root      3 has converged.
 Root      4 has converged.
 Root      5 has converged.
 Root      6 has converged.
 Root      7 has converged.
 Root      8 has converged.
 Root      9 has converged.
 Root     10 has converged.
 Root     11 has converged.
 Root     12 has converged.
 Root     13 has converged.
 Root     14 has converged.
 Root     15 has converged.
 Root     16 not converged, maximum delta is    0.000002126786285
 Excitation Energies [eV] at current iteration:
 Root      1 :     5.276529767145783   Change is   -0.000000000000343
 Root      2 :     5.451396162835778   Change is   -0.000000000000317
 Root      3 :     5.827208097837173   Change is   -0.000000000001778
 Root      4 :     6.022314475959734   Change is   -0.000000000000082
 Root      5 :     6.315517964181244   Change is    0.000000000001198
 Root      6 :     6.393340647009667   Change is   -0.000000000000181
 Root      7 :     6.424601844872413   Change is   -0.000000000000806
 Root      8 :     6.556470471233027   Change is    0.000000000001893
 Root      9 :     6.665674919348692   Change is   -0.000000000001307
 Root     10 :     6.908975690768517   Change is    0.000000000000071
 Root     11 :     7.031669551849693   Change is   -0.000000000000444
 Root     12 :     7.124120078005399   Change is   -0.000000000000565
 Root     13 :     7.168493897843680   Change is   -0.000000000000103
 Root     14 :     7.376922070274495   Change is   -0.000000000016504
 Root     15 :     7.399875030754091   Change is   -0.000000000018874
 Root     16 :     7.463903772575169   Change is   -0.000000000056425
 Iteration    10 Dimension   186 NMult   440 NNew      2
 CISAX will form     2 AO SS matrices at one time.
 NMat=     2 NSing=     2 JSym2X= 0.
 Root      1 has converged.
 Root      2 has converged.
 Root      3 has converged.
 Root      4 has converged.
 Root      5 has converged.
 Root      6 has converged.
 Root      7 has converged.
 Root      8 has converged.
 Root      9 has converged.
 Root     10 has converged.
 Root     11 has converged.
 Root     12 has converged.
 Root     13 has converged.
 Root     14 has converged.
 Root     15 has converged.
 Root     16 not converged, maximum delta is    0.000001242559660
 Excitation Energies [eV] at current iteration:
 Root      1 :     5.276529767145955   Change is    0.000000000000171
 Root      2 :     5.451396162835657   Change is   -0.000000000000120
 Root      3 :     5.827208097836961   Change is   -0.000000000000211
 Root      4 :     6.022314475959802   Change is    0.000000000000068
 Root      5 :     6.315517964181282   Change is    0.000000000000039
 Root      6 :     6.393340647009667   Change is    0.000000000000000
 Root      7 :     6.424601844872694   Change is    0.000000000000281
 Root      8 :     6.556470471232086   Change is   -0.000000000000940
 Root      9 :     6.665674919348125   Change is   -0.000000000000567
 Root     10 :     6.908975690768802   Change is    0.000000000000285
 Root     11 :     7.031669551849493   Change is   -0.000000000000199
 Root     12 :     7.124120078005434   Change is    0.000000000000035
 Root     13 :     7.168493897843783   Change is    0.000000000000103
 Root     14 :     7.376922070273637   Change is   -0.000000000000858
 Root     15 :     7.399875030754190   Change is    0.000000000000100
 Root     16 :     7.463903772544364   Change is   -0.000000000030806
 Iteration    11 Dimension   188 NMult   442 NNew      2
 CISAX will form     2 AO SS matrices at one time.
 NMat=     2 NSing=     2 JSym2X= 0.
 Root      1 has converged.
 Root      2 has converged.
 Root      3 has converged.
 Root      4 has converged.
 Root      5 has converged.
 Root      6 has converged.
 Root      7 has converged.
 Root      8 has converged.
 Root      9 has converged.
 Root     10 has converged.
 Root     11 has converged.
 Root     12 has converged.
 Root     13 has converged.
 Root     14 has converged.
 Root     15 has converged.
 Root     16 has converged.
 Excitation Energies [eV] at current iteration:
 Root      1 :     5.276529767146375   Change is    0.000000000000421
 Root      2 :     5.451396162835808   Change is    0.000000000000150
 Root      3 :     5.827208097837046   Change is    0.000000000000085
 Root      4 :     6.022314475960061   Change is    0.000000000000259
 Root      5 :     6.315517964181686   Change is    0.000000000000404
 Root      6 :     6.393340647009347   Change is   -0.000000000000321
 Root      7 :     6.424601844872566   Change is   -0.000000000000128
 Root      8 :     6.556470471233315   Change is    0.000000000001229
 Root      9 :     6.665674919347977   Change is   -0.000000000000148
 Root     10 :     6.908975690769158   Change is    0.000000000000356
 Root     11 :     7.031669551849506   Change is    0.000000000000012
 Root     12 :     7.124120078005213   Change is   -0.000000000000221
 Root     13 :     7.168493897843680   Change is   -0.000000000000103
 Root     14 :     7.376922070273101   Change is   -0.000000000000536
 Root     15 :     7.399875030754091   Change is   -0.000000000000100
 Root     16 :     7.463903772524571   Change is   -0.000000000019793
 Convergence achieved on expansion vectors.
 ***********************************************************************
 Excited states from <AA,BB:AA,BB> singles matrix:
 ***********************************************************************
 
 1PDM for each excited state written to RWF  633
 Ground to excited state transition densities written to RWF  633
 Ground to excited state transition electric dipole moments (Au):
       state          X           Y           Z        Dip. S.      Osc.
         1        -0.1755     -0.4265     -0.0720      0.2179      0.0282
         2         0.1264      0.0495      0.1603      0.0441      0.0059
         3         0.8856     -0.3234      0.0337      0.8900      0.1271
         4        -0.8780     -0.0507      0.3052      0.8666      0.1279
         5        -2.9481      0.1381     -0.6855      9.1805      1.4205
         6         0.4330      2.3445      0.0058      5.6843      0.8904
         7         0.0810      0.2159      0.1564      0.0776      0.0122
         8        -0.9083     -0.5730     -1.6739      3.9553      0.6353
         9         1.0752      0.5327     -1.5994      3.9979      0.6529
        10        -0.0676      0.1070     -0.0524      0.0188      0.0032
        11        -0.2210     -0.0838      0.0661      0.0602      0.0104
        12         0.1770      0.3103      0.1455      0.1488      0.0260
        13        -0.0369      0.1901     -0.0340      0.0386      0.0068
        14        -0.0230     -0.0010     -0.0199      0.0009      0.0002
        15        -0.2197      0.1720     -0.0916      0.0863      0.0156
        16         0.2286      0.0121      0.0088      0.0525      0.0096
 Ground to excited state transition velocity dipole moments (Au):
       state          X           Y           Z        Dip. S.      Osc.
         1         0.0345      0.0835      0.0142      0.0084      0.0287
         2        -0.0251     -0.0098     -0.0325      0.0018      0.0059
         3        -0.1894      0.0695     -0.0071      0.0407      0.1268
         4         0.1942      0.0119     -0.0677      0.0424      0.1279
         5         0.6830     -0.0315      0.1584      0.4925      1.4147
[...]
    29  C   -0.000425   0.000157   0.000012   0.000104   5.061040   0.421696
    30  H    0.000096  -0.000005  -0.000001  -0.000010   0.421696   0.537796
    31  H   -0.000025   0.000003   0.000000   0.000000   0.406034  -0.018147
    32  H    0.000094  -0.000036  -0.000001   0.000000   0.435027  -0.033127
              31         32
     1  C    0.000907  -0.010824
     2  H    0.001481  -0.005375
     3  C    0.021531  -0.014361
     4  C    0.000417   0.000162
     5  C   -0.053194  -0.037375
     6  C   -0.000831   0.000514
     7  C    0.000433  -0.000188
     8  C   -0.007336  -0.002150
     9  H    0.000001  -0.000003
    10  H    0.005661  -0.000059
    11  H   -0.000064   0.000009
    12  C   -0.000081   0.002789
    13  C    0.000000  -0.000002
    14  C   -0.000073   0.000102
    15  C   -0.000005  -0.000077
    16  C    0.000000   0.000002
    17  C   -0.000005   0.000027
    18  H    0.000078   0.000081
    19  H    0.000000  -0.000013
    20  H    0.000000   0.000000
    21  H    0.000000   0.000000
    22  H    0.000000   0.000000
    23  O   -0.000034   0.001516
    24  H   -0.000014   0.000215
    25  C   -0.000025   0.000094
    26  H    0.000003  -0.000036
    27  H    0.000000  -0.000001
    28  H    0.000000   0.000000
    29  C    0.406034   0.435027
    30  H   -0.018147  -0.033127
    31  H    0.527002  -0.018681
    32  H   -0.018681   0.527845
 Mulliken charges:
               1
     1  C    0.160150
     2  H    0.118090
     3  C   -0.194243
     4  C   -0.114080
     5  C    0.226854
     6  C    0.076873
     7  C   -0.257546
     8  C   -0.250907
     9  H    0.123132
    10  H    0.122367
    11  H    0.136769
    12  C    0.110600
    13  C   -0.146412
    14  C   -0.218675
    15  C   -0.244949
    16  C   -0.135382
    17  C   -0.152464
    18  H    0.155749
    19  H    0.146238
    20  H    0.139036
    21  H    0.139195
    22  H    0.140747
    23  O   -0.498472
    24  H    0.342056
    25  C   -0.366814
    26  H    0.143651
    27  H    0.132906
    28  H    0.141975
    29  C   -0.412832
    30  H    0.147558
    31  H    0.134943
    32  H    0.153886
 Sum of Mulliken charges =   0.00000
 Mulliken charges with hydrogens summed into heavy atoms:
               1
     1  C    0.278240
     3  C   -0.194243
     4  C    0.022689
     5  C    0.226854
     6  C    0.076873
     7  C   -0.134413
     8  C   -0.128540
    12  C    0.110600
    13  C   -0.005665
    14  C   -0.062926
    15  C   -0.098711
    16  C    0.003654
    17  C   -0.013270
    23  O   -0.156416
    25  C    0.051718
    29  C    0.023555
 Electronic spatial extent (au):  <R**2>=           3559.9430
 Charge=              0.0000 electrons
 Dipole moment (field-independent basis, Debye):
    X=             -1.6226    Y=             -0.8273    Z=             -0.4192  Tot=              1.8689
 Quadrupole moment (field-independent basis, Debye-Ang):
   XX=            -88.5985   YY=            -91.4371   ZZ=            -92.6956
   XY=              3.9408   XZ=             -2.0620   YZ=             -0.1582
 Traceless Quadrupole moment (field-independent basis, Debye-Ang):
   XX=              2.3119   YY=             -0.5267   ZZ=             -1.7852
   XY=              3.9408   XZ=             -2.0620   YZ=             -0.1582
 Octapole moment (field-independent basis, Debye-Ang**2):
  XXX=              8.6226  YYY=              1.2638  ZZZ=             10.7171  XYY=            -22.8996
  XXY=              7.1987  XXZ=            -12.1158  XZZ=              1.1401  YZZ=             -5.4961
  YYZ=              4.6711  XYZ=              4.7377
 Hexadecapole moment (field-independent basis, Debye-Ang**3):
 XXXX=          -2999.6620 YYYY=           -922.2105 ZZZZ=           -679.6450 XXXY=             66.3070
 XXXZ=             59.3114 YYYX=              1.9465 YYYZ=            -14.7839 ZZZX=            -56.9409
 ZZZY=             -7.0207 XXYY=           -699.5495 XXZZ=           -620.9919 YYZZ=           -287.2548
 XXYZ=             -9.6582 YYXZ=             15.4054 ZZXY=             13.4635
 N-N= 1.063305736645D+03 E-N=-3.652799628294D+03  KE= 6.532713809879D+02
 No NMR shielding tensors so no spin-rotation constants.
 Leave Link  601 at Sat Jul 23 16:43:28 2016, MaxMem=  3221225472 cpu:        29.8
 (Enter /cm/shared/apps/gaussian/g09D01/g09/l701.exe)
 Compute integral first derivatives.
 ... and contract with generalized density number  6.
 R6Disp: Adding Grimme-D2 dispersion energy 1st derivatives to the gradient.
   1 Symmetry operations used in ECPInt.
 ECPInt:  NShTT=   28920 NPrTT=   87136 LenC2=   27076 LenP2D=   60737.
 LDataN:  DoStor=T MaxTD1= 7 Len=  274
 D1PCM: PCM CHGder 1st derivatives, ID1Alg=3 FixD1E=F DoIter=F DoCFld=F I1PDM=6.
 Leave Link  701 at Sat Jul 23 16:43:42 2016, MaxMem=  3221225472 cpu:       404.5
 (Enter /cm/shared/apps/gaussian/g09D01/g09/l702.exe)
 L702 exits ... SP integral derivatives will be done elsewhere.
 Leave Link  702 at Sat Jul 23 16:43:42 2016, MaxMem=  3221225472 cpu:         0.4
 (Enter /cm/shared/apps/gaussian/g09D01/g09/l703.exe)
 Compute integral first derivatives, UseDBF=F ICtDFT=           0.
 Integral derivatives from FoFJK, PRISM(SPDF).
 Calling FoFJK, ICntrl=  10005127 FMM=F ISym2X=0 I1Cent= 0 IOpClX= 0 NMat=1 NMatS=1 NMatT=0.
 FoFJK:  IHMeth= 1 ICntrl=10005127 DoSepK=T KAlg= 0 I1Cent=   0 FoldK=F
 IRaf=         1 NMat=   1 IRICut=       1 DoRegI=T DoRafI=F ISym2E= 0.
 FoFCou: FMM=F IPFlag=           0 FMFlag=      100000 FMFlg1=         800
         NFxFlg=           0 DoJE=F BraDBF=F KetDBF=F FulRan=T
         wScrn=  0.000000 ICntrl=10005527 IOpCl=  0 I1Cent=           0 NGrid=           0
         NMat0=    1 NMatS0=      1 NMatT0=    0 NMatD0=    1 NMtDS0=    0 NMtDT0=    0
 Symmetry not used in FoFCou.
 Leave Link  703 at Sat Jul 23 16:46:36 2016, MaxMem=  3221225472 cpu:      5393.5
 (Enter /cm/shared/apps/gaussian/g09D01/g09/l716.exe)
 Dipole        =-7.15056250D-01-3.02754362D-01-2.03951588D-01
 -------------------------------------------------------------------
 Center     Atomic                   Forces (Hartrees/Bohr)
 Number     Number              X              Y              Z
 -------------------------------------------------------------------
      1        6          -0.008545161    0.001142850   -0.006887894
      2        1          -0.000318463    0.000276798   -0.000548164
      3        6           0.032372626   -0.016160928    0.018333860
      4        6          -0.028593490    0.013786931   -0.013907629
      5        6           0.002313422   -0.032947570    0.001385267
      6        6           0.024746110    0.017531695    0.010719397
      7        6          -0.004367620    0.024301892   -0.003400874
      8        6          -0.017822046   -0.014260619   -0.008246396
      9        1           0.000092697   -0.000342899    0.000220355
     10        1           0.000593629    0.000081023    0.000211841
     11        1           0.000913772   -0.000332811    0.000441243
     12        6           0.000056535    0.000056992    0.001716641
     13        6           0.001194024    0.000286691   -0.000425567
     14        6          -0.000337617    0.000063198   -0.000443684
     15        6           0.000269684    0.000235226   -0.000107591
     16        6           0.001204592    0.000446703    0.000839414
     17        6          -0.000385787   -0.000185413   -0.000973514
     18        1          -0.000051919   -0.000353910    0.000229217
     19        1           0.000451643    0.000127941   -0.000071924
     20        1           0.000205425    0.000049832   -0.000004204
     21        1           0.000040345   -0.000009274   -0.000080956
     22        1           0.000081007    0.000028645    0.000002896
     23        8           0.004072816    0.001462392    0.004949822
     24        1          -0.001543270   -0.000732957    0.000062297
     25        6          -0.009093083   -0.002856319   -0.002260345
     26        1           0.001219049   -0.001556196    0.000696695
     27        1          -0.000103303    0.000227331   -0.000738759
     28        1           0.002421181    0.000173060   -0.000994677
     29        6          -0.005330743    0.009221739   -0.002793218
     30        1           0.002676360   -0.000193202    0.000092362
     31        1          -0.000075535    0.000397940   -0.000094487
     32        1           0.001643119    0.000033221    0.002078576
 -------------------------------------------------------------------
 Cartesian Forces:  Max     0.032947570 RMS     0.008295777
 Z-matrix is all fixed cartesians, so copy forces.
 Leave Link  716 at Sat Jul 23 16:46:36 2016, MaxMem=  3221225472 cpu:         5.1
 (Enter /cm/shared/apps/gaussian/g09D01/g09/l103.exe)

 GradGradGradGradGradGradGradGradGradGradGradGradGradGradGradGradGradGrad
 Berny optimization.
 Search for a local minimum.
 Step number   1 out of a maximum of    2
 All quantities printed in internal units (Hartrees-Bohrs-Radians)
 Second derivative matrix not updated -- first step.
 ITU=  0
     Eigenvalues ---    0.00018   0.00045   0.00076   0.00213   0.00332
     Eigenvalues ---    0.00365   0.00451   0.00594   0.00729   0.00787
     Eigenvalues ---    0.01034   0.01455   0.01732   0.01847   0.02319
     Eigenvalues ---    0.02641   0.02883   0.02957   0.03543   0.03674
     Eigenvalues ---    0.03980   0.04320   0.04642   0.05652   0.06162
     Eigenvalues ---    0.06598   0.06915   0.07036   0.07059   0.07127
     Eigenvalues ---    0.07222   0.07417   0.07643   0.08431   0.09282
     Eigenvalues ---    0.09846   0.11615   0.12025   0.12655   0.12909
     Eigenvalues ---    0.13224   0.13286   0.13443   0.13868   0.14014
     Eigenvalues ---    0.14851   0.17149   0.17692   0.19097   0.22245
     Eigenvalues ---    0.25101   0.30170   0.30312   0.30656   0.30895
     Eigenvalues ---    0.31353   0.31721   0.32184   0.35731   0.43315
     Eigenvalues ---    0.44839   0.45709   0.47724   0.55682   0.57522
     Eigenvalues ---    0.65958   0.69599   0.76290   0.80512   0.84104
     Eigenvalues ---    0.88876   0.91177   0.92678   0.94724   0.99826
     Eigenvalues ---    1.02068   1.06268   1.10401   1.14638   1.20761
     Eigenvalues ---    1.25569   1.27523   1.28195   1.30753   1.50360
     Eigenvalues ---    1.52396   1.62370   1.63189   1.63594   1.64528
 Quadratic step=8.020D-01 exceeds max=3.000D-01 adjusted using Lamda=-2.377D-03.
 Angle between NR and scaled steps=  52.86 degrees.
 Angle between quadratic step and forces=  62.62 degrees.
 Linear search not attempted -- first point.
 TrRot=  0.000809 -0.001230  0.002580  1.411360 -0.000483 -1.411354
 Variable       Old X    -DE/DX   Delta X   Delta X   Delta X     New X
                                 (Linear)    (Quad)   (Total)
    X1        0.23974  -0.00855   0.00000   0.02385   0.02452   0.26426
    Y1       -1.36758   0.00114   0.00000  -0.02597  -0.02806  -1.39564
    Z1        1.80223  -0.00689   0.00000   0.02305   0.02498   1.82721
    X2        0.05849  -0.00032   0.00000   0.02265   0.02335   0.08184
    Y2       -3.42470   0.00028   0.00000  -0.02427  -0.02633  -3.45102
    Z2        1.75486  -0.00055   0.00000  -0.00950  -0.00856   1.74631
    X3       -2.09719   0.03237   0.00000   0.03449   0.03525  -2.06194
    Y3       -0.23494  -0.01616   0.00000  -0.02991  -0.03145  -0.26638
    Z3        0.56926   0.01833   0.00000   0.04504   0.04734   0.61660
    X4       -6.44809  -0.02859   0.00000  -0.08970  -0.08878  -6.53686
    Y4        1.79261   0.01379   0.00000   0.04324   0.04275   1.83536
    Z4       -1.59576  -0.01391   0.00000  -0.04630  -0.04334  -1.63911
    X5       -4.01826   0.00231   0.00000  -0.02176  -0.02091  -4.03917
    Y5       -1.83952  -0.03295   0.00000  -0.03650  -0.03761  -1.87713
    Z5       -0.29964   0.00139   0.00000   0.00246   0.00384  -0.29581
    X6       -2.35280   0.02475   0.00000   0.01624   0.01701  -2.33579
    Y6        2.39609   0.01753   0.00000   0.02263   0.02122   2.41731
    Z6        0.32938   0.01072   0.00000   0.01122   0.01477   0.34416
    X7       -4.54346  -0.00437   0.00000  -0.03281  -0.03196  -4.57541
    Y7        3.36706   0.02430   0.00000   0.04898   0.04809   3.41515
    Z7       -0.74457  -0.00340   0.00000  -0.02124  -0.01738  -0.76195
    X8       -6.17679  -0.01782   0.00000  -0.06447  -0.06355  -6.24034
    Y8       -0.79427  -0.01426   0.00000  -0.00717  -0.00776  -0.80203
    Z8       -1.37771  -0.00825   0.00000  -0.03099  -0.02927  -1.40698
    X9       -4.74807   0.00009   0.00000  -0.01561  -0.01476  -4.76283
    Y9        5.39671  -0.00034   0.00000   0.04950   0.04869   5.44540
    Z9       -0.92322   0.00022   0.00000  -0.01926  -0.01445  -0.93768
   X10       -7.66072   0.00059   0.00000  -0.05403  -0.05305  -7.71377
   Y10       -2.03561   0.00008   0.00000  -0.01520  -0.01548  -2.05109
   Z10       -2.04814   0.00021   0.00000  -0.03328  -0.03227  -2.08041
   X11       -8.14069   0.00091   0.00000  -0.08289  -0.08190  -8.22259
   Y11        2.58374  -0.00033   0.00000   0.04627   0.04617   2.62992
   Z11       -2.43032   0.00044   0.00000  -0.04821  -0.04501  -2.47533
   X12        2.67804   0.00006   0.00000   0.02498   0.02576   2.70380
   Y12       -0.76960   0.00006   0.00000  -0.00781  -0.00924  -0.77883
   Z12        0.42638   0.00172   0.00000   0.02114   0.02355   0.44994
   X13        7.16810   0.00119   0.00000   0.01607   0.01704   7.18514
   Y13        0.15812   0.00029   0.00000   0.01472   0.01457   0.17269
   Z13       -2.17434  -0.00043   0.00000  -0.00539  -0.00218  -2.17652
   X14        2.77892  -0.00034   0.00000   0.01832   0.01930   2.79822
   Y14       -1.00120   0.00006   0.00000  -0.01221  -0.01239  -1.01359
   Z14       -2.19030  -0.00044   0.00000   0.01924   0.02155  -2.16874
   X15        4.84688   0.00027   0.00000   0.03173   0.03240   4.87929
   Y15       -0.07902   0.00024   0.00000   0.01003   0.00800  -0.07102
   Z15        1.72873  -0.00011   0.00000   0.00691   0.00983   1.73856
   X16        7.07692   0.00120   0.00000   0.02651   0.02729   7.10420
   Y16        0.38923   0.00045   0.00000   0.01990   0.01850   0.40772
   Z16        0.43221   0.00084   0.00000  -0.00356  -0.00024   0.43196
   X17        5.00711  -0.00039   0.00000   0.01074   0.01182   5.01893
   Y17       -0.54234  -0.00019   0.00000  -0.00066  -0.00021  -0.54255
   Z17       -3.48368  -0.00097   0.00000   0.00615   0.00886  -3.47482
   X18        1.08770  -0.00005   0.00000   0.01752   0.01859   1.10629
   Y18       -1.51415  -0.00035   0.00000  -0.03181  -0.03151  -1.54566
   Z18       -3.22683   0.00023   0.00000   0.02984   0.03177  -3.19506
   X19        4.77292   0.00045   0.00000   0.04536   0.04588   4.81880
   Y19        0.11260   0.00013   0.00000   0.01579   0.01278   0.12539
   Z19        3.76116  -0.00007   0.00000   0.00659   0.00960   3.77076
   X20        8.75357   0.00021   0.00000   0.02881   0.02950   8.78307
   Y20        0.93822   0.00005   0.00000   0.02988   0.02800   0.96622
   Z20        1.46959   0.00000   0.00000  -0.01192  -0.00821   1.46138
   X21        5.05509   0.00004   0.00000   0.00206   0.00330   5.05839
   Y21       -0.72571  -0.00001   0.00000  -0.00581  -0.00439  -0.73010
   Z21       -5.52131  -0.00008   0.00000   0.00612   0.00874  -5.51257
   X22        8.91096   0.00008   0.00000   0.00982   0.01087   8.92183
   Y22        0.52401   0.00003   0.00000   0.02094   0.02128   0.54529
   Z22       -3.18142   0.00000   0.00000  -0.01411  -0.01058  -3.19201
   X23        0.47526   0.00407   0.00000   0.04953   0.05000   0.52526
   Y23       -0.62262   0.00146   0.00000  -0.06250  -0.06584  -0.68846
   Z23        4.37320   0.00495   0.00000   0.04389   0.04618   4.41938
   X24       -1.15025  -0.00154   0.00000   0.04927   0.04969  -1.10056
   Y24       -0.80802  -0.00073   0.00000  -0.08544  -0.08915  -0.89717
   Z24        5.14930   0.00006   0.00000   0.04424   0.04631   5.19560
   X25       -0.31397  -0.00909   0.00000  -0.00217  -0.00147  -0.31544
   Y25        4.21017  -0.00286   0.00000   0.02064   0.01888   4.22905
   Z25        1.13694  -0.00226   0.00000  -0.02142  -0.01684   1.12010
   X26        0.50840   0.00122   0.00000   0.01464   0.01521   0.52361
   Y26        3.68835  -0.00156   0.00000   0.01603   0.01341   3.70176
   Z26        2.94719   0.00070   0.00000  -0.02539  -0.02101   2.92619
   X27       -1.07346  -0.00010   0.00000  -0.00359  -0.00291  -1.07638
   Y27        6.11952   0.00023   0.00000   0.02130   0.01947   6.13899
   Z27        1.27685  -0.00074   0.00000  -0.03158  -0.02616   1.25069
   X28        1.22007   0.00242   0.00000   0.00306   0.00386   1.22394
   Y28        4.23442   0.00017   0.00000   0.01589   0.01479   4.24921
   Z28       -0.24415  -0.00099   0.00000  -0.02618  -0.02148  -0.26562
   X29       -3.83344  -0.00533   0.00000  -0.03648  -0.03564  -3.86908
   Y29       -4.68106   0.00922   0.00000  -0.00732  -0.00851  -4.68956
   Z29       -0.12880  -0.00279   0.00000  -0.00516  -0.00511  -0.13390
   X30       -2.20949   0.00268   0.00000  -0.01000  -0.00908  -2.21857
   Y30       -5.41295  -0.00019   0.00000   0.00157   0.00087  -5.41208
   Z30       -1.17058   0.00009   0.00000   0.01747   0.01730  -1.15328
   X31       -5.52238  -0.00008   0.00000  -0.02955  -0.02864  -5.55102
   Y31       -5.55045   0.00040   0.00000  -0.00995  -0.01076  -5.56121
   Z31       -0.92196  -0.00009   0.00000  -0.01591  -0.01641  -0.93836
   X32       -3.65770   0.00164   0.00000  -0.02868  -0.02798  -3.68567
   Y32       -5.33423   0.00003   0.00000   0.00329   0.00117  -5.33306
   Z32        1.82112   0.00208   0.00000   0.00410   0.00385   1.82497
         Item               Value     Threshold  Converged?
 Maximum Force            0.032948     0.000450     NO 
 RMS     Force            0.008296     0.000300     NO 
 Maximum Displacement     0.089151     0.001800     NO 
 RMS     Displacement     0.030558     0.001200     NO 
 Predicted change in Energy=-5.715713D-03
 GradGradGradGradGradGradGradGradGradGradGradGradGradGradGradGradGradGrad

 Leave Link  103 at Sat Jul 23 16:46:37 2016, MaxMem=  3221225472 cpu:        28.3
 (Enter /cm/shared/apps/gaussian/g09D01/g09/l9999.exe)
 1\1\GINC-R730XD-GPU\Force\RwB97XD TD-FC\def2TZVP\C15H16O1\DPADULA\23-J
 ul-2016\0\\#p force td=(nstates=16,root=1) wb97xd def2tzvp scrf=(iefpc
 m,solvent=ethanol) nosymm\\MeMe_M0001\\0,1\C,0.126863,-0.72369,0.95369
 8\H,0.030954,-1.812271,0.928634\C,-1.109786,-0.124323,0.301239\C,-3.41
 218,0.948606,-0.844442\C,-2.126369,-0.973431,-0.158565\C,-1.245046,1.2
 67954,0.174303\C,-2.404293,1.781769,-0.394011\C,-3.268618,-0.420311,-0
 .729054\H,-2.512569,2.855816,-0.488548\H,-4.053877,-1.077196,-1.083831
 \H,-4.307869,1.367258,-1.286068\C,1.417156,-0.407253,0.225633\C,3.7931
 95,0.083673,-1.150612\C,1.470541,-0.529812,-1.159055\C,2.56486,-0.0418
 18,0.914804\C,3.744943,0.205969,0.228714\C,2.64965,-0.286996,-1.843485
 \H,0.575588,-0.801255,-1.707563\H,2.525718,0.059587,1.990319\H,4.63219
 1,0.496484,0.777674\H,2.675037,-0.384031,-2.921752\H,4.715477,0.277292
 ,-1.683537\O,0.251495,-0.329476,2.314196\H,-0.608685,-0.427586,2.72489
 \C,-0.166144,2.227926,0.601644\H,0.269035,1.951792,1.559587\H,-0.56805
 3,3.238312,0.67568\H,0.645634,2.240757,-0.129196\C,-2.028568,-2.477108
 ,-0.068156\H,-1.169211,-2.864412,-0.619446\H,-2.922318,-2.93717,-0.487
 878\H,-1.935569,-2.822752,0.963696\\Version=ES64L-G09RevD.01\HF=-656.4
 842761\RMSD=4.815e-09\RMSF=8.296e-03\Dipole=-0.7150563,-0.3027544,-0.2
 039516\PG=C01 [X(C15H16O1)]\\@


 A MUSTACHE HAIR ACROSS A CHIP IS LIKE A REDWOOD
 TREE FALLING THROUGH A HOUSING PROJECT.
 - AN IBM MANAGER IN EAST FISHKILL, NEW YORK
   AS QUOTED IN "FROM SANDS TO CIRCUITS", IBM INNOVATION JANUARY 1985.
 Job cpu time:       2 days 11 hours 48 minutes 57.0 seconds.
 File lengths (MBytes):  RWF=   1075 Int=      0 D2E=      0 Chk=    181 Scr=      1
 Normal termination of Gaussian 09 at Sat Jul 23 16:46:38 2016.
