 Entering Gaussian System, Link 0=g09
 Input=MeMe_M0001_freq.com
 Output=MeMe_M0001_freq.log
 Initial command:
 /cm/shared/apps/gaussian/g09D01/g09/l1.exe "/local/dpadula/Gau-50304.inp" -scrdir="/local/dpadula/"
 Entering Link 1 = /cm/shared/apps/gaussian/g09D01/g09/l1.exe PID=     50305.
  
 Copyright (c) 1988,1990,1992,1993,1995,1998,2003,2009,2013,
            Gaussian, Inc.  All Rights Reserved.
  
 This is part of the Gaussian(R) 09 program.  It is based on
 the Gaussian(R) 03 system (copyright 2003, Gaussian, Inc.),
 the Gaussian(R) 98 system (copyright 1998, Gaussian, Inc.),
 the Gaussian(R) 94 system (copyright 1995, Gaussian, Inc.),
 the Gaussian 92(TM) system (copyright 1992, Gaussian, Inc.),
 the Gaussian 90(TM) system (copyright 1990, Gaussian, Inc.),
 the Gaussian 88(TM) system (copyright 1988, Gaussian, Inc.),
 the Gaussian 86(TM) system (copyright 1986, Carnegie Mellon
 University), and the Gaussian 82(TM) system (copyright 1983,
 Carnegie Mellon University). Gaussian is a federally registered
 trademark of Gaussian, Inc.
  
 This software contains proprietary and confidential information,
 including trade secrets, belonging to Gaussian, Inc.
  
 This software is provided under written license and may be
 used, copied, transmitted, or stored only in accord with that
 written license.
  
 The following legend is applicable only to US Government
 contracts under FAR:
  
                    RESTRICTED RIGHTS LEGEND
  
 Use, reproduction and disclosure by the US Government is
 subject to restrictions as set forth in subparagraphs (a)
 and (c) of the Commercial Computer Software - Restricted
 Rights clause in FAR 52.227-19.
  
 Gaussian, Inc.
 340 Quinnipiac St., Bldg. 40, Wallingford CT 06492
  
  
 ---------------------------------------------------------------
 Warning -- This program may not be used in any manner that
 competes with the business of Gaussian, Inc. or will provide
 assistance to any competitor of Gaussian, Inc.  The licensee
 of this program is prohibited from giving any competitor of
 Gaussian, Inc. access to this program.  By using this program,
 the user acknowledges that Gaussian, Inc. is engaged in the
 business of creating and licensing software in the field of
 computational chemistry and represents and warrants to the
 licensee that it is not a competitor of Gaussian, Inc. and that
 it will not use this program in any manner prohibited above.
 ---------------------------------------------------------------
  

 Cite this work as:
 Gaussian 09, Revision D.01,
 M. J. Frisch, G. W. Trucks, H. B. Schlegel, G. E. Scuseria, 
 M. A. Robb, J. R. Cheeseman, G. Scalmani, V. Barone, B. Mennucci, 
 G. A. Petersson, H. Nakatsuji, M. Caricato, X. Li, H. P. Hratchian, 
 A. F. Izmaylov, J. Bloino, G. Zheng, J. L. Sonnenberg, M. Hada, 
 M. Ehara, K. Toyota, R. Fukuda, J. Hasegawa, M. Ishida, T. Nakajima, 
 Y. Honda, O. Kitao, H. Nakai, T. Vreven, J. A. Montgomery, Jr., 
 J. E. Peralta, F. Ogliaro, M. Bearpark, J. J. Heyd, E. Brothers, 
 K. N. Kudin, V. N. Staroverov, T. Keith, R. Kobayashi, J. Normand, 
 K. Raghavachari, A. Rendell, J. C. Burant, S. S. Iyengar, J. Tomasi, 
 M. Cossi, N. Rega, J. M. Millam, M. Klene, J. E. Knox, J. B. Cross, 
 V. Bakken, C. Adamo, J. Jaramillo, R. Gomperts, R. E. Stratmann, 
 O. Yazyev, A. J. Austin, R. Cammi, C. Pomelli, J. W. Ochterski, 
 R. L. Martin, K. Morokuma, V. G. Zakrzewski, G. A. Voth, 
 P. Salvador, J. J. Dannenberg, S. Dapprich, A. D. Daniels, 
 O. Farkas, J. B. Foresman, J. V. Ortiz, J. Cioslowski, 
 and D. J. Fox, Gaussian, Inc., Wallingford CT, 2013.
 
 ******************************************
 Gaussian 09:  ES64L-G09RevD.01 24-Apr-2013
                22-Jul-2016 
 ******************************************
 %nprocshared=32
 Will use up to   32 processors via shared memory.
 %chk=MeMe_00001_freq.chk
 %mem=24GB
 -----------------------------------------------------
 #p opt freq=(noraman, hpmodes) wB97XD def2tzvp nosymm
 -----------------------------------------------------
 1/14=-1,18=20,19=15,26=3,38=1/1,3;
 2/9=110,12=2,15=1,17=6,18=5,40=1/2;
 3/5=44,7=101,11=2,16=1,25=1,30=1,71=1,74=-58/1,2,3;
 4//1;
 5/5=2,38=5/2;
 6/7=2,8=2,9=2,10=2,28=1/1;
 7/30=1/1,2,3,16;
 1/14=-1,18=20,19=15,26=3/3(2);
 2/9=110,15=1/2;
 99//99;
 2/9=110,15=1/2;
 3/5=44,7=101,11=2,16=1,25=1,30=1,71=1,74=-58/1,2,3;
 4/5=5,16=3,69=1/1;
 5/5=2,38=5/2;
 7/30=1/1,2,3,16;
 1/14=-1,18=20,19=15,26=3/3(-5);
 2/9=110,15=1/2;
 6/7=2,8=2,9=2,10=2,19=2,28=1/1;
 99/9=1/99;
 Leave Link    1 at Fri Jul 22 17:11:27 2016, MaxMem=  3221225472 cpu:         6.1
 (Enter /cm/shared/apps/gaussian/g09D01/g09/l101.exe)
 ----------
 MeMe_M0001
 ----------
 Symbolic Z-matrix:
 Charge =  0 Multiplicity = 1
 C                     0.12558  -0.72597   0.96074 
 H                     0.03364  -1.81632   0.94825 
 C                    -1.11201  -0.13009   0.30275 
 C                    -3.41292   0.944    -0.85967 
 C                    -2.13261  -0.98167  -0.15365 
 C                    -1.24153   1.26524   0.16427 
 C                    -2.40075   1.77952  -0.41218 
 C                    -3.2747   -0.42818  -0.73299 
 H                    -2.50509   2.85475  -0.51496 
 H                    -4.06313  -1.08485  -1.08554 
 H                    -4.30746   1.36271  -1.3071 
 C                     1.41696  -0.40832   0.22995 
 C                     3.7933    0.10102  -1.15022 
 C                     1.46003  -0.49626  -1.16101 
 C                     2.57416  -0.07057   0.92448 
 C                     3.75494   0.18647   0.23587 
 C                     2.64027  -0.24376  -1.8476 
 H                     0.55786  -0.74305  -1.71201 
 H                     2.54016   0.00363   2.00385 
 H                     4.64871   0.45623   0.78762 
 H                     2.65779  -0.30942  -2.92981 
 H                     4.71419   0.30417  -1.68499 
 O                     0.2528   -0.31558   2.31997 
 H                    -0.59707  -0.44286   2.74366 
 C                    -0.15674   2.22556   0.58607 
 H                     0.25833   1.96805   1.56025 
 H                    -0.54795   3.24385   0.62671 
 H                     0.66937   2.20924  -0.1309 
 C                    -2.03774  -2.48764  -0.05067 
 H                    -1.1815   -2.88233  -0.60496 
 H                    -2.93602  -2.95042  -0.46207 
 H                    -1.9417   -2.82485   0.98541 
 
 NAtoms=     32 NQM=       32 NQMF=       0 NMMI=      0 NMMIF=      0
                NMic=       0 NMicF=      0.
                    Isotopes and Nuclear Properties:
 (Nuclear quadrupole moments (NQMom) in fm**2, nuclear magnetic moments (NMagM)
  in nuclear magnetons)

  Atom         1           2           3           4           5           6           7           8           9          10
 IAtWgt=          12           1          12          12          12          12          12          12           1           1
 AtmWgt=  12.0000000   1.0078250  12.0000000  12.0000000  12.0000000  12.0000000  12.0000000  12.0000000   1.0078250   1.0078250
 NucSpn=           0           1           0           0           0           0           0           0           1           1
 AtZEff=   0.0000000   0.0000000   0.0000000   0.0000000   0.0000000   0.0000000   0.0000000   0.0000000   0.0000000   0.0000000
 NQMom=    0.0000000   0.0000000   0.0000000   0.0000000   0.0000000   0.0000000   0.0000000   0.0000000   0.0000000   0.0000000
 NMagM=    0.0000000   2.7928460   0.0000000   0.0000000   0.0000000   0.0000000   0.0000000   0.0000000   2.7928460   2.7928460
 AtZNuc=   6.0000000   1.0000000   6.0000000   6.0000000   6.0000000   6.0000000   6.0000000   6.0000000   1.0000000   1.0000000

  Atom        11          12          13          14          15          16          17          18          19          20
 IAtWgt=           1          12          12          12          12          12          12           1           1           1
 AtmWgt=   1.0078250  12.0000000  12.0000000  12.0000000  12.0000000  12.0000000  12.0000000   1.0078250   1.0078250   1.0078250
 NucSpn=           1           0           0           0           0           0           0           1           1           1
 AtZEff=   0.0000000   0.0000000   0.0000000   0.0000000   0.0000000   0.0000000   0.0000000   0.0000000   0.0000000   0.0000000
 NQMom=    0.0000000   0.0000000   0.0000000   0.0000000   0.0000000   0.0000000   0.0000000   0.0000000   0.0000000   0.0000000
 NMagM=    2.7928460   0.0000000   0.0000000   0.0000000   0.0000000   0.0000000   0.0000000   2.7928460   2.7928460   2.7928460
 AtZNuc=   1.0000000   6.0000000   6.0000000   6.0000000   6.0000000   6.0000000   6.0000000   1.0000000   1.0000000   1.0000000

  Atom        21          22          23          24          25          26          27          28          29          30
 IAtWgt=           1           1          16           1          12           1           1           1          12           1
 AtmWgt=   1.0078250   1.0078250  15.9949146   1.0078250  12.0000000   1.0078250   1.0078250   1.0078250  12.0000000   1.0078250
 NucSpn=           1           1           0           1           0           1           1           1           0           1
 AtZEff=   0.0000000   0.0000000   0.0000000   0.0000000   0.0000000   0.0000000   0.0000000   0.0000000   0.0000000   0.0000000
 NQMom=    0.0000000   0.0000000   0.0000000   0.0000000   0.0000000   0.0000000   0.0000000   0.0000000   0.0000000   0.0000000
 NMagM=    2.7928460   2.7928460   0.0000000   2.7928460   0.0000000   2.7928460   2.7928460   2.7928460   0.0000000   2.7928460
 AtZNuc=   1.0000000   1.0000000   8.0000000   1.0000000   6.0000000   1.0000000   1.0000000   1.0000000   6.0000000   1.0000000

  Atom        31          32
 IAtWgt=           1           1
 AtmWgt=   1.0078250   1.0078250
 NucSpn=           1           1
 AtZEff=   0.0000000   0.0000000
 NQMom=    0.0000000   0.0000000
 NMagM=    2.7928460   2.7928460
 AtZNuc=   1.0000000   1.0000000
 Leave Link  101 at Fri Jul 22 17:11:27 2016, MaxMem=  3221225472 cpu:        12.9
 (Enter /cm/shared/apps/gaussian/g09D01/g09/l103.exe)

 GradGradGradGradGradGradGradGradGradGradGradGradGradGradGradGradGradGrad
 Berny optimization.
 Initialization pass.
                           ----------------------------
                           !    Initial Parameters    !
                           ! (Angstroms and Degrees)  !
 --------------------------                            --------------------------
 ! Name  Definition              Value          Derivative Info.                !
 --------------------------------------------------------------------------------
 ! R1    R(1,2)                  1.0943         estimate D2E/DX2                !
 ! R2    R(1,3)                  1.523          estimate D2E/DX2                !
 ! R3    R(1,12)                 1.5174         estimate D2E/DX2                !
 ! R4    R(1,23)                 1.4255         estimate D2E/DX2                !
 ! R5    R(3,5)                  1.4054         estimate D2E/DX2                !
 ! R6    R(3,6)                  1.4082         estimate D2E/DX2                !
 ! R7    R(4,7)                  1.3867         estimate D2E/DX2                !
 ! R8    R(4,8)                  1.3849         estimate D2E/DX2                !
 ! R9    R(4,11)                 1.0843         estimate D2E/DX2                !
 ! R10   R(5,8)                  1.3951         estimate D2E/DX2                !
 ! R11   R(5,29)                 1.5125         estimate D2E/DX2                !
 ! R12   R(6,7)                  1.393          estimate D2E/DX2                !
 ! R13   R(6,25)                 1.5089         estimate D2E/DX2                !
 ! R14   R(7,9)                  1.0852         estimate D2E/DX2                !
 ! R15   R(8,10)                 1.085          estimate D2E/DX2                !
 ! R16   R(12,14)                1.3944         estimate D2E/DX2                !
 ! R17   R(12,15)                1.3912         estimate D2E/DX2                !
 ! R18   R(13,16)                1.3893         estimate D2E/DX2                !
 ! R19   R(13,17)                1.3909         estimate D2E/DX2                !
 ! R20   R(13,22)                1.0841         estimate D2E/DX2                !
 ! R21   R(14,17)                1.3886         estimate D2E/DX2                !
 ! R22   R(14,18)                1.0855         estimate D2E/DX2                !
 ! R23   R(15,16)                1.3909         estimate D2E/DX2                !
 ! R24   R(15,19)                1.0825         estimate D2E/DX2                !
 ! R25   R(16,20)                1.0844         estimate D2E/DX2                !
 ! R26   R(17,21)                1.0843         estimate D2E/DX2                !
 ! R27   R(23,24)                0.9581         estimate D2E/DX2                !
 ! R28   R(25,26)                1.0898         estimate D2E/DX2                !
 ! R29   R(25,27)                1.0916         estimate D2E/DX2                !
 ! R30   R(25,28)                1.094          estimate D2E/DX2                !
 ! R31   R(29,30)                1.0937         estimate D2E/DX2                !
 ! R32   R(29,31)                1.091          estimate D2E/DX2                !
 ! R33   R(29,32)                1.0938         estimate D2E/DX2                !
 ! A1    A(2,1,3)              108.4589         estimate D2E/DX2                !
 ! A2    A(2,1,12)             105.9374         estimate D2E/DX2                !
 ! A3    A(2,1,23)             107.7725         estimate D2E/DX2                !
 ! A4    A(3,1,12)             113.676          estimate D2E/DX2                !
 ! A5    A(3,1,23)             111.8278         estimate D2E/DX2                !
 ! A6    A(12,1,23)            108.8435         estimate D2E/DX2                !
 ! A7    A(1,3,5)              119.5599         estimate D2E/DX2                !
 ! A8    A(1,3,6)              120.3247         estimate D2E/DX2                !
 ! A9    A(5,3,6)              120.1119         estimate D2E/DX2                !
 ! A10   A(7,4,8)              119.6455         estimate D2E/DX2                !
 ! A11   A(7,4,11)             120.177          estimate D2E/DX2                !
 ! A12   A(8,4,11)             120.1775         estimate D2E/DX2                !
 ! A13   A(3,5,8)              119.2721         estimate D2E/DX2                !
 ! A14   A(3,5,29)             122.3893         estimate D2E/DX2                !
 ! A15   A(8,5,29)             118.3369         estimate D2E/DX2                !
 ! A16   A(3,6,7)              118.8847         estimate D2E/DX2                !
 ! A17   A(3,6,25)             122.4806         estimate D2E/DX2                !
 ! A18   A(7,6,25)             118.6174         estimate D2E/DX2                !
 ! A19   A(4,7,6)              121.2318         estimate D2E/DX2                !
 ! A20   A(4,7,9)              119.7542         estimate D2E/DX2                !
 ! A21   A(6,7,9)              119.0132         estimate D2E/DX2                !
 ! A22   A(4,8,5)              120.8483         estimate D2E/DX2                !
 ! A23   A(4,8,10)             119.8301         estimate D2E/DX2                !
 ! A24   A(5,8,10)             119.3215         estimate D2E/DX2                !
 ! A25   A(1,12,14)            119.5703         estimate D2E/DX2                !
 ! A26   A(1,12,15)            121.2156         estimate D2E/DX2                !
 ! A27   A(14,12,15)           119.1831         estimate D2E/DX2                !
 ! A28   A(16,13,17)           119.5106         estimate D2E/DX2                !
 ! A29   A(16,13,22)           120.2709         estimate D2E/DX2                !
 ! A30   A(17,13,22)           120.2183         estimate D2E/DX2                !
 ! A31   A(12,14,17)           120.5323         estimate D2E/DX2                !
 ! A32   A(12,14,18)           119.6697         estimate D2E/DX2                !
 ! A33   A(17,14,18)           119.7846         estimate D2E/DX2                !
 ! A34   A(12,15,16)           120.2549         estimate D2E/DX2                !
 ! A35   A(12,15,19)           119.2296         estimate D2E/DX2                !
 ! A36   A(16,15,19)           120.5095         estimate D2E/DX2                !
 ! A37   A(13,16,15)           120.4007         estimate D2E/DX2                !
 ! A38   A(13,16,20)           120.0107         estimate D2E/DX2                !
 ! A39   A(15,16,20)           119.5886         estimate D2E/DX2                !
 ! A40   A(13,17,14)           120.1165         estimate D2E/DX2                !
 ! A41   A(13,17,21)           120.1326         estimate D2E/DX2                !
 ! A42   A(14,17,21)           119.7494         estimate D2E/DX2                !
 ! A43   A(1,23,24)            107.7121         estimate D2E/DX2                !
 ! A44   A(6,25,26)            111.9202         estimate D2E/DX2                !
 ! A45   A(6,25,27)            110.2697         estimate D2E/DX2                !
 ! A46   A(6,25,28)            110.499          estimate D2E/DX2                !
 ! A47   A(26,25,27)           108.8831         estimate D2E/DX2                !
 ! A48   A(26,25,28)           107.1412         estimate D2E/DX2                !
 ! A49   A(27,25,28)           107.9951         estimate D2E/DX2                !
 ! A50   A(5,29,30)            111.9585         estimate D2E/DX2                !
 ! A51   A(5,29,31)            110.1839         estimate D2E/DX2                !
 ! A52   A(5,29,32)            112.1464         estimate D2E/DX2                !
 ! A53   A(30,29,31)           107.4814         estimate D2E/DX2                !
 ! A54   A(30,29,32)           107.4613         estimate D2E/DX2                !
 ! A55   A(31,29,32)           107.3796         estimate D2E/DX2                !
 ! D1    D(2,1,3,5)              1.7969         estimate D2E/DX2                !
 ! D2    D(2,1,3,6)           -178.8753         estimate D2E/DX2                !
 ! D3    D(12,1,3,5)           119.3419         estimate D2E/DX2                !
 ! D4    D(12,1,3,6)           -61.3303         estimate D2E/DX2                !
 ! D5    D(23,1,3,5)          -116.911          estimate D2E/DX2                !
 ! D6    D(23,1,3,6)            62.4168         estimate D2E/DX2                !
 ! D7    D(2,1,12,14)           75.66           estimate D2E/DX2                !
 ! D8    D(2,1,12,15)         -102.2992         estimate D2E/DX2                !
 ! D9    D(3,1,12,14)          -43.3364         estimate D2E/DX2                !
 ! D10   D(3,1,12,15)          138.7044         estimate D2E/DX2                !
 ! D11   D(23,1,12,14)        -168.69           estimate D2E/DX2                !
 ! D12   D(23,1,12,15)          13.3508         estimate D2E/DX2                !
 ! D13   D(2,1,23,24)          -71.0411         estimate D2E/DX2                !
 ! D14   D(3,1,23,24)           48.0734         estimate D2E/DX2                !
 ! D15   D(12,1,23,24)         174.4982         estimate D2E/DX2                !
 ! D16   D(1,3,5,8)            178.8188         estimate D2E/DX2                !
 ! D17   D(1,3,5,29)            -1.6512         estimate D2E/DX2                !
 ! D18   D(6,3,5,8)             -0.5104         estimate D2E/DX2                !
 ! D19   D(6,3,5,29)           179.0196         estimate D2E/DX2                !
 ! D20   D(1,3,6,7)           -178.4265         estimate D2E/DX2                !
 ! D21   D(1,3,6,25)             3.1111         estimate D2E/DX2                !
 ! D22   D(5,3,6,7)              0.8975         estimate D2E/DX2                !
 ! D23   D(5,3,6,25)          -177.5648         estimate D2E/DX2                !
 ! D24   D(8,4,7,6)              0.0415         estimate D2E/DX2                !
 ! D25   D(8,4,7,9)            179.7031         estimate D2E/DX2                !
 ! D26   D(11,4,7,6)          -179.9091         estimate D2E/DX2                !
 ! D27   D(11,4,7,9)            -0.2475         estimate D2E/DX2                !
 ! D28   D(7,4,8,5)              0.3625         estimate D2E/DX2                !
 ! D29   D(7,4,8,10)          -179.7681         estimate D2E/DX2                !
 ! D30   D(11,4,8,5)          -179.6869         estimate D2E/DX2                !
 ! D31   D(11,4,8,10)            0.1825         estimate D2E/DX2                !
 ! D32   D(3,5,8,4)             -0.1254         estimate D2E/DX2                !
 ! D33   D(3,5,8,10)          -179.9954         estimate D2E/DX2                !
 ! D34   D(29,5,8,4)          -179.6745         estimate D2E/DX2                !
 ! D35   D(29,5,8,10)            0.4555         estimate D2E/DX2                !
 ! D36   D(3,5,29,30)          -60.5052         estimate D2E/DX2                !
 ! D37   D(3,5,29,31)          179.9372         estimate D2E/DX2                !
 ! D38   D(3,5,29,32)           60.3852         estimate D2E/DX2                !
 ! D39   D(8,5,29,30)          119.029          estimate D2E/DX2                !
 ! D40   D(8,5,29,31)           -0.5287         estimate D2E/DX2                !
 ! D41   D(8,5,29,32)         -120.0806         estimate D2E/DX2                !
 ! D42   D(3,6,7,4)             -0.6669         estimate D2E/DX2                !
 ! D43   D(3,6,7,9)            179.669          estimate D2E/DX2                !
 ! D44   D(25,6,7,4)           177.8555         estimate D2E/DX2                !
 ! D45   D(25,6,7,9)            -1.8086         estimate D2E/DX2                !
 ! D46   D(3,6,25,26)          -44.5657         estimate D2E/DX2                !
 ! D47   D(3,6,25,27)         -165.9316         estimate D2E/DX2                !
 ! D48   D(3,6,25,28)           74.7497         estimate D2E/DX2                !
 ! D49   D(7,6,25,26)          136.9679         estimate D2E/DX2                !
 ! D50   D(7,6,25,27)           15.602          estimate D2E/DX2                !
 ! D51   D(7,6,25,28)         -103.7166         estimate D2E/DX2                !
 ! D52   D(1,12,14,17)        -178.3242         estimate D2E/DX2                !
 ! D53   D(1,12,14,18)           3.0103         estimate D2E/DX2                !
 ! D54   D(15,12,14,17)         -0.3233         estimate D2E/DX2                !
 ! D55   D(15,12,14,18)       -178.9888         estimate D2E/DX2                !
 ! D56   D(1,12,15,16)         178.4993         estimate D2E/DX2                !
 ! D57   D(1,12,15,19)          -2.3915         estimate D2E/DX2                !
 ! D58   D(14,12,15,16)          0.5323         estimate D2E/DX2                !
 ! D59   D(14,12,15,19)        179.6416         estimate D2E/DX2                !
 ! D60   D(17,13,16,15)          0.0204         estimate D2E/DX2                !
 ! D61   D(17,13,16,20)       -179.8978         estimate D2E/DX2                !
 ! D62   D(22,13,16,15)        179.8508         estimate D2E/DX2                !
 ! D63   D(22,13,16,20)         -0.0675         estimate D2E/DX2                !
 ! D64   D(16,13,17,14)          0.1894         estimate D2E/DX2                !
 ! D65   D(16,13,17,21)        179.7482         estimate D2E/DX2                !
 ! D66   D(22,13,17,14)       -179.6411         estimate D2E/DX2                !
 ! D67   D(22,13,17,21)         -0.0823         estimate D2E/DX2                !
 ! D68   D(12,14,17,13)         -0.0369         estimate D2E/DX2                !
 ! D69   D(12,14,17,21)       -179.5974         estimate D2E/DX2                !
 ! D70   D(18,14,17,13)        178.6271         estimate D2E/DX2                !
 ! D71   D(18,14,17,21)         -0.9334         estimate D2E/DX2                !
 ! D72   D(12,15,16,13)         -0.3849         estimate D2E/DX2                !
 ! D73   D(12,15,16,20)        179.5337         estimate D2E/DX2                !
 ! D74   D(19,15,16,13)       -179.4826         estimate D2E/DX2                !
 ! D75   D(19,15,16,20)          0.436          estimate D2E/DX2                !
 --------------------------------------------------------------------------------
 Trust Radius=3.00D-01 FncErr=1.00D-07 GrdErr=1.00D-06
 Number of steps in this run=    173 maximum allowed number of steps=    192.
 GradGradGradGradGradGradGradGradGradGradGradGradGradGradGradGradGradGrad

 Leave Link  103 at Fri Jul 22 17:11:27 2016, MaxMem=  3221225472 cpu:         0.3
 (Enter /cm/shared/apps/gaussian/g09D01/g09/l202.exe)
                          Input orientation:                          
 ---------------------------------------------------------------------
 Center     Atomic      Atomic             Coordinates (Angstroms)
 Number     Number       Type             X           Y           Z
 ---------------------------------------------------------------------
      1          6           0        0.125581   -0.725970    0.960739
      2          1           0        0.033636   -1.816318    0.948246
      3          6           0       -1.112012   -0.130093    0.302745
      4          6           0       -3.412915    0.943995   -0.859668
      5          6           0       -2.132614   -0.981667   -0.153650
      6          6           0       -1.241528    1.265236    0.164271
      7          6           0       -2.400749    1.779521   -0.412179
      8          6           0       -3.274696   -0.428179   -0.732992
      9          1           0       -2.505092    2.854747   -0.514960
     10          1           0       -4.063128   -1.084845   -1.085535
     11          1           0       -4.307463    1.362709   -1.307102
     12          6           0        1.416959   -0.408319    0.229948
     13          6           0        3.793303    0.101018   -1.150223
     14          6           0        1.460028   -0.496255   -1.161005
     15          6           0        2.574158   -0.070568    0.924478
     16          6           0        3.754936    0.186474    0.235874
     17          6           0        2.640268   -0.243764   -1.847596
     18          1           0        0.557864   -0.743051   -1.712012
     19          1           0        2.540159    0.003630    2.003847
     20          1           0        4.648711    0.456233    0.787618
     21          1           0        2.657785   -0.309421   -2.929805
     22          1           0        4.714189    0.304165   -1.684987
     23          8           0        0.252801   -0.315575    2.319968
     24          1           0       -0.597071   -0.442864    2.743656
     25          6           0       -0.156736    2.225556    0.586071
     26          1           0        0.258331    1.968052    1.560254
     27          1           0       -0.547947    3.243853    0.626708
     28          1           0        0.669372    2.209243   -0.130899
     29          6           0       -2.037740   -2.487636   -0.050670
     30          1           0       -1.181495   -2.882334   -0.604964
     31          1           0       -2.936016   -2.950421   -0.462070
     32          1           0       -1.941699   -2.824849    0.985406
 ---------------------------------------------------------------------
                    Distance matrix (angstroms):
                    1          2          3          4          5
     1  C    0.000000
     2  H    1.094289   0.000000
     3  C    1.523044   2.138349   0.000000
     4  C    4.315509   4.771435   2.792673   0.000000
     5  C    2.531144   2.569719   1.405384   2.417810   0.000000
     6  C    2.543275   3.425877   1.408152   2.422100   2.437967
     7  C    3.813756   4.550499   2.412174   1.386661   2.786197
     8  C    3.810418   3.962140   2.416363   1.384923   1.395112
     9  H    4.681844   5.514069   3.393904   2.143348   3.871351
    10  H    4.675608   4.631932   3.398229   2.142425   2.146145
    11  H    5.399774   5.834205   3.876980   1.084313   3.399488
    12  C    1.517437   2.100475   2.545271   5.132611   3.615984
    13  C    4.311874   4.713263   5.121196   7.261171   6.105887
    14  C    2.517005   2.868118   2.981950   5.090255   3.762641
    15  C    2.535034   3.082606   3.738709   6.329104   4.913875
    16  C    3.811850   4.285642   4.877691   7.290551   6.014942
    17  C    3.800384   4.133302   4.326256   6.247223   5.118042
    18  H    2.707537   2.916109   2.687648   4.397693   3.118349
    19  H    2.729575   3.272486   4.031127   6.672563   5.240268
    20  H    4.678277   5.146767   5.810749   8.242650   6.995707
    21  H    4.660676   4.918961   4.969196   6.535283   5.577354
    22  H    5.395958   5.773902   6.171246   8.193922   7.132816
    23  O    1.425522   2.044966   2.442602   5.013390   3.500381
    24  H    1.944523   2.346841   2.514167   4.778734   3.323038
    25  C    2.988576   4.062531   2.557715   3.786194   3.838953
    26  H    2.763113   3.840117   2.803815   4.514727   4.165925
    27  H    4.040385   5.103622   3.436078   3.963168   4.579863
    28  H    3.178499   4.215905   2.972183   4.335553   4.246593
    29  C    2.967553   2.395642   2.557320   3.784399   1.512464
    30  H    2.968127   2.241739   2.898895   4.436767   2.172751
    31  H    4.043012   3.477645   3.444733   3.943602   2.148620
    32  H    2.946107   2.218212   2.901054   4.446680   2.175136
                    6          7          8          9         10
     6  C    0.000000
     7  C    1.393046   0.000000
     8  C    2.794013   2.395964   0.000000
     9  H    2.141143   1.085155   3.378969   0.000000
    10  H    3.878959   3.379572   1.084952   4.274742   0.000000
    11  H    3.402117   2.147132   2.145574   2.470265   2.469679
    12  C    3.142078   4.446781   4.789496   5.156062   5.676226
    13  C    5.332244   6.459749   7.100052   6.903359   7.945688
    14  C    3.486777   4.543731   4.754518   5.231517   5.554942
    15  C    4.113605   5.473498   6.089679   6.035580   7.008743
    16  C    5.112094   6.391418   7.122656   6.846268   8.030224
    17  C    4.625260   5.618359   6.021889   6.152351   6.798799
    18  H    3.285037   4.099552   3.968141   4.874298   4.675774
    19  H    4.390541   5.779580   6.441218   6.318846   7.371055
    20  H    5.978124   7.272241   8.116330   7.656793   9.043216
    21  H    5.220871   6.024192   6.327276   6.519105   7.012367
    22  H    6.309832   7.376927   8.078670   7.745479   8.906738
    23  O    3.062517   4.346882   4.666528   5.068899   5.551258
    24  H    3.160088   4.260463   4.388277   5.013318   5.204651
    25  C    1.508941   2.496206   4.301617   2.668881   5.386364
    26  H    2.166171   3.316134   4.845945   3.567807   5.915690
    27  H    2.147051   2.580006   4.771558   2.298962   5.833172
    28  H    2.151700   3.112784   4.782696   3.262116   5.844562
    29  C    3.842421   4.297801   2.497396   5.382847   2.672258
    30  H    4.218728   4.822514   3.228120   5.888472   3.430120
    31  H    4.586432   4.760394   2.559259   5.821380   2.267039
    32  H    4.230047   4.833652   3.236325   5.901383   3.437568
                   11         12         13         14         15
    11  H    0.000000
    12  C    6.186119   0.000000
    13  C    8.199932   2.794872   0.000000
    14  C    6.061439   1.394395   2.408531   0.000000
    15  C    7.375021   1.391243   2.412497   2.402443   0.000000
    16  C    8.292562   2.412457   1.389259   2.772002   1.390857
    17  C    7.151493   2.416558   1.390933   1.388570   2.778266
    18  H    5.316915   2.149721   3.390594   1.085549   3.386555
    19  H    7.726539   2.139626   3.395293   3.381251   1.082450
    20  H    9.242435   3.391558   2.147819   3.856432   2.144766
    21  H    7.344649   3.396096   2.150529   2.144337   3.862582
    22  H    9.091398   3.878961   1.084100   3.391872   3.395507
    23  O    6.063685   2.394170   4.975031   3.688796   2.719581
    24  H    5.782365   3.221217   5.893512   4.413715   3.674875
    25  C    4.642967   3.088792   4.809489   3.615862   3.583921
    26  H    5.425371   2.959607   4.829962   3.862918   3.150117
    27  H    4.627341   4.166129   5.646357   4.606114   4.563068
    28  H    5.183528   2.746039   3.904175   3.000996   3.152708
    29  C    4.642782   4.041937   6.473887   4.175263   5.297427
    30  H    5.318370   3.683720   5.826346   3.602804   4.934587
    31  H    4.604133   5.088179   7.420820   5.082976   6.370093
    32  H    5.328046   4.206057   6.783204   4.647707   5.289872
                   16         17         18         19         20
    16  C    0.000000
    17  C    2.401757   0.000000
    18  H    3.857401   2.145711   0.000000
    19  H    2.152869   3.860679   4.277223   0.000000
    20  H    1.084447   3.386472   4.941808   2.475895   0.000000
    21  H    3.386912   1.084340   2.465912   4.944973   4.285936
    22  H    2.150285   2.151236   4.286307   4.292345   2.478142
    23  O    4.106148   4.803514   4.066038   2.331058   4.718878
    24  H    5.062114   5.621352   4.612696   3.254057   5.670334
    25  C    4.425118   4.454605   3.821579   3.770980   5.124787
    26  H    4.141769   4.709479   4.259991   3.043430   4.707228
    27  H    5.292931   5.333889   4.752666   4.683157   5.899320
    28  H    3.707671   3.584512   3.350879   3.594678   4.444306
    29  C    6.386554   5.490689   3.541298   5.602197   7.353755
    30  H    5.873069   4.807500   2.971104   5.383808   6.861240
    31  H    7.422673   6.351426   4.317642   6.692956   8.408038
    32  H    6.487027   5.973468   4.225845   5.396718   7.364654
                   21         22         23         24         25
    21  H    0.000000
    22  H    2.480898   0.000000
    23  O    5.774435   6.027249   0.000000
    24  H    6.542175   6.955603   0.958121   0.000000
    25  C    5.168077   5.707483   3.103460   3.459701   0.000000
    26  H    5.577176   5.758019   2.406688   2.818629   1.089780
    27  H    5.962488   6.455678   4.022170   4.251560   1.091616
    28  H    4.258090   4.733398   3.543302   4.111036   1.093968
    29  C    5.923005   7.486901   3.947702   3.750317   5.114469
    30  H    5.173474   6.788175   4.147371   4.183996   5.344084
    31  H    6.659970   8.403183   4.985048   4.694165   5.967724
    32  H    6.543050   7.824485   3.590730   3.251664   5.371420
                   26         27         28         29         30
    26  H    0.000000
    27  H    1.774616   0.000000
    28  H    1.757022   1.768121   0.000000
    29  C    5.264995   5.960561   5.421768   0.000000
    30  H    5.503409   6.280809   5.438254   1.093702   0.000000
    31  H    6.203630   6.727358   6.303224   1.091018   1.761647
    32  H    5.304949   6.237015   5.779785   1.093796   1.763659
                   31         32
    31  H    0.000000
    32  H    1.760574   0.000000
 Symmetry turned off by external request.
 Stoichiometry    C15H16O
 Framework group  C1[X(C15H16O)]
 Deg. of freedom    90
 Full point group                 C1      NOp   1
 Rotational constants (GHZ):      0.9532903      0.3644588      0.3517828
 Leave Link  202 at Fri Jul 22 17:11:27 2016, MaxMem=  3221225472 cpu:         1.9
 (Enter /cm/shared/apps/gaussian/g09D01/g09/l301.exe)
 Standard basis: def2TZVP (5D, 7F)
 Ernie: Thresh=  0.10000D-02 Tol=  0.10000D-05 Strict=F.
   592 basis functions,   944 primitive gaussians,   672 cartesian basis functions
    57 alpha electrons       57 beta electrons
       nuclear repulsion energy      1061.7414961194 Hartrees.
 IExCor= 4639 DFT=T Ex+Corr=wB97XD ExCW=0 ScaHFX=  1.000000
 ScaDFX=  1.000000  1.000000  1.000000  1.000000 ScalE2=  1.000000  1.000000
 IRadAn=      0 IRanWt=     -1 IRanGd=            0 ICorTp=0 IEmpDi=121
  HFx wShort=  0.000000 wLong=  0.200000 cFull=  0.222036 cShort=  0.000000 cLong=  0.777964
  DFx wShort=  0.000000 wLong=  0.200000 cFull=  0.000000 cShort=  0.000000 cLong=  1.000000
 NAtoms=   32 NActive=   32 NUniq=   32 SFac= 1.00D+00 NAtFMM=   60 NAOKFM=F Big=F
 Integral buffers will be    131072 words long.
 Raffenetti 2 integral format.
 Two-electron integral symmetry is turned off.
 R6Disp:  Grimme-D2 Dispersion energy=       -0.0246282424 Hartrees.
 Nuclear repulsion after empirical dispersion term =     1061.7168678770 Hartrees.
 Leave Link  301 at Fri Jul 22 17:11:27 2016, MaxMem=  3221225472 cpu:         2.1
 (Enter /cm/shared/apps/gaussian/g09D01/g09/l302.exe)
 NPDir=0 NMtPBC=     1 NCelOv=     1 NCel=       1 NClECP=     1 NCelD=      1
         NCelK=      1 NCelE2=     1 NClLst=     1 CellRange=     0.0.
 One-electron integrals computed using PRISM.
   1 Symmetry operations used in ECPInt.
 ECPInt:  NShTT=   28920 NPrTT=   87136 LenC2=   27075 LenP2D=   60724.
 LDataN:  DoStor=T MaxTD1= 6 Len=  172
 NBasis=   592 RedAO= T EigKep=  4.26D-06  NBF=   592
 NBsUse=   592 1.00D-06 EigRej= -1.00D+00 NBFU=   592
 Precomputing XC quadrature grid using
 IXCGrd= 4 IRadAn=           0 IRanWt=          -1 IRanGd=           0 AccXCQ= 0.00D+00.
 Generated NRdTot=       0 NPtTot=           0 NUsed=           0 NTot=          32
 NSgBfM=   664   664   664   664   664 MxSgAt=    32 MxSgA2=    32.
 Leave Link  302 at Fri Jul 22 17:11:30 2016, MaxMem=  3221225472 cpu:        74.0
 (Enter /cm/shared/apps/gaussian/g09D01/g09/l303.exe)
 DipDrv:  MaxL=1.
 Leave Link  303 at Fri Jul 22 17:11:30 2016, MaxMem=  3221225472 cpu:         7.7
 (Enter /cm/shared/apps/gaussian/g09D01/g09/l401.exe)
 ExpMin= 9.52D-02 ExpMax= 2.70D+04 ExpMxC= 9.22D+02 IAcc=2 IRadAn=         4 AccDes= 0.00D+00
 Harris functional with IExCor= 4639 and IRadAn=       4 diagonalized for initial guess.
 HarFok:  IExCor= 4639 AccDes= 0.00D+00 IRadAn=         4 IDoV= 1 UseB2=F ITyADJ=14
 ICtDFT=  3500011 ScaDFX=  1.000000  1.000000  1.000000  1.000000
 FoFCou: FMM=F IPFlag=           0 FMFlag=      100000 FMFlg1=           0
         NFxFlg=           0 DoJE=T BraDBF=F KetDBF=T FulRan=T
         wScrn=  0.000000 ICntrl=     500 IOpCl=  0 I1Cent=   200000004 NGrid=           0
         NMat0=    1 NMatS0=      1 NMatT0=    0 NMatD0=    1 NMtDS0=    0 NMtDT0=    0
 Symmetry not used in FoFCou.
 Harris En= -626.806038476795    
 JPrj=0 DoOrth=F DoCkMO=F.
 Leave Link  401 at Fri Jul 22 17:11:35 2016, MaxMem=  3221225472 cpu:       133.0
 (Enter /cm/shared/apps/gaussian/g09D01/g09/l502.exe)
 Closed shell SCF:
 Using DIIS extrapolation, IDIIS=  1040.
 Two-electron integral symmetry not used.
 IVT=     1398902 IEndB=     1398902 NGot=  3221225472 MDV=  3220295467
 LenX=  3220295467 LenY=  3219843211
 Requested convergence on RMS density matrix=1.00D-08 within 128 cycles.
 Requested convergence on MAX density matrix=1.00D-06.
 Requested convergence on             energy=1.00D-06.
 No special actions if energy rises.
 Fock matrices will be formed incrementally for  20 cycles.
 Integral accuracy reduced to 1.0D-05 until final iterations.

 Cycle   1  Pass 0  IDiag  1:
 FoFJK:  IHMeth= 1 ICntrl=       0 DoSepK=T KAlg= 0 I1Cent=   0 FoldK=F
 IRaf=         1 NMat=   1 IRICut=       1 DoRegI=T DoRafI=F ISym2E= 0.
 FoFCou: FMM=F IPFlag=           0 FMFlag=      100000 FMFlg1=           0
         NFxFlg=           0 DoJE=T BraDBF=F KetDBF=F FulRan=T
         wScrn=  0.000000 ICntrl=     500 IOpCl=  0 I1Cent=           0 NGrid=           0
         NMat0=    1 NMatS0=      1 NMatT0=    0 NMatD0=    1 NMtDS0=    0 NMtDT0=    0
 Symmetry not used in FoFCou.
 E= -656.297332557254    
 DIIS: error= 3.12D-02 at cycle   1 NSaved=   1.
 NSaved= 1 IEnMin= 1 EnMin= -656.297332557254     IErMin= 1 ErrMin= 3.12D-02
 ErrMax= 3.12D-02  0.00D+00 EMaxC= 1.00D-01 BMatC= 1.41D+00 BMatP= 1.41D+00
 IDIUse=3 WtCom= 6.88D-01 WtEn= 3.12D-01
 Coeff-Com:  0.100D+01
 Coeff-En:   0.100D+01
 Coeff:      0.100D+01
 Gap=     0.473 Goal=   None    Shift=    0.000
 GapD=    0.473 DampG=2.000 DampE=0.500 DampFc=1.0000 IDamp=-1.
 RMSDP=2.38D-03 MaxDP=2.25D-01              OVMax= 6.42D-02

 Cycle   2  Pass 0  IDiag  1:
 RMSU=  2.18D-03    CP:  8.74D-01
 E= -656.432613348123     Delta-E=       -0.135280790869 Rises=F Damp=F
 DIIS: error= 5.83D-03 at cycle   2 NSaved=   2.
 NSaved= 2 IEnMin= 2 EnMin= -656.432613348123     IErMin= 2 ErrMin= 5.83D-03
 ErrMax= 5.83D-03  0.00D+00 EMaxC= 1.00D-01 BMatC= 6.06D-02 BMatP= 1.41D+00
 IDIUse=3 WtCom= 9.42D-01 WtEn= 5.83D-02
 Coeff-Com:  0.105D+00 0.895D+00
 Coeff-En:   0.000D+00 0.100D+01
 Coeff:      0.990D-01 0.901D+00
 Gap=     0.395 Goal=   None    Shift=    0.000
 RMSDP=1.17D-03 MaxDP=1.09D-01 DE=-1.35D-01 OVMax= 7.01D-02

 Cycle   3  Pass 0  IDiag  1:
 RMSU=  9.45D-04    CP:  8.96D-01  6.89D-01
 E= -656.444969416881     Delta-E=       -0.012356068758 Rises=F Damp=F
 DIIS: error= 5.83D-03 at cycle   3 NSaved=   3.
 NSaved= 3 IEnMin= 3 EnMin= -656.444969416881     IErMin= 2 ErrMin= 5.83D-03
 ErrMax= 5.83D-03  0.00D+00 EMaxC= 1.00D-01 BMatC= 4.32D-02 BMatP= 6.06D-02
 IDIUse=3 WtCom= 9.42D-01 WtEn= 5.83D-02
 Coeff-Com:  0.263D-01 0.465D+00 0.509D+00
 Coeff-En:   0.000D+00 0.422D+00 0.578D+00
 Coeff:      0.248D-01 0.462D+00 0.513D+00
 Gap=     0.410 Goal=   None    Shift=    0.000
 RMSDP=6.63D-04 MaxDP=8.89D-02 DE=-1.24D-02 OVMax= 3.43D-02

 Cycle   4  Pass 0  IDiag  1:
 RMSU=  3.03D-04    CP:  8.70D-01  8.66D-01  5.73D-01
 E= -656.478284921557     Delta-E=       -0.033315504676 Rises=F Damp=F
 DIIS: error= 5.04D-04 at cycle   4 NSaved=   4.
 NSaved= 4 IEnMin= 4 EnMin= -656.478284921557     IErMin= 4 ErrMin= 5.04D-04
 ErrMax= 5.04D-04  0.00D+00 EMaxC= 1.00D-01 BMatC= 5.10D-04 BMatP= 4.32D-02
 IDIUse=3 WtCom= 9.95D-01 WtEn= 5.04D-03
 Coeff-Com:  0.958D-02 0.169D+00 0.212D+00 0.609D+00
 Coeff-En:   0.000D+00 0.000D+00 0.000D+00 0.100D+01
 Coeff:      0.954D-02 0.168D+00 0.211D+00 0.611D+00
 Gap=     0.362 Goal=   None    Shift=    0.000
 RMSDP=9.09D-05 MaxDP=4.16D-03 DE=-3.33D-02 OVMax= 3.94D-03

 Cycle   5  Pass 0  IDiag  1:
 RMSU=  8.37D-05    CP:  8.71D-01  8.72D-01  5.97D-01  9.23D-01
 E= -656.478715763115     Delta-E=       -0.000430841558 Rises=F Damp=F
 DIIS: error= 1.65D-04 at cycle   5 NSaved=   5.
 NSaved= 5 IEnMin= 5 EnMin= -656.478715763115     IErMin= 5 ErrMin= 1.65D-04
 ErrMax= 1.65D-04  0.00D+00 EMaxC= 1.00D-01 BMatC= 2.15D-05 BMatP= 5.10D-04
 IDIUse=3 WtCom= 9.98D-01 WtEn= 1.65D-03
 Coeff-Com: -0.119D-02-0.184D-01-0.106D-01 0.133D+00 0.898D+00
 Coeff-En:   0.000D+00 0.000D+00 0.000D+00 0.000D+00 0.100D+01
 Coeff:     -0.119D-02-0.184D-01-0.106D-01 0.132D+00 0.898D+00
 Gap=     0.363 Goal=   None    Shift=    0.000
 RMSDP=7.42D-05 MaxDP=2.92D-03 DE=-4.31D-04 OVMax= 1.71D-03

 Cycle   6  Pass 0  IDiag  1:
 RMSU=  5.37D-05    CP:  8.71D-01  8.80D-01  6.04D-01  9.70D-01  1.54D+00
 E= -656.478743480511     Delta-E=       -0.000027717396 Rises=F Damp=F
 DIIS: error= 8.98D-05 at cycle   6 NSaved=   6.
 NSaved= 6 IEnMin= 6 EnMin= -656.478743480511     IErMin= 6 ErrMin= 8.98D-05
 ErrMax= 8.98D-05  0.00D+00 EMaxC= 1.00D-01 BMatC= 5.19D-06 BMatP= 2.15D-05
 IDIUse=1 WtCom= 1.00D+00 WtEn= 0.00D+00
 Coeff-Com: -0.113D-02-0.182D-01-0.165D-01 0.315D-01 0.434D+00 0.571D+00
 Coeff:     -0.113D-02-0.182D-01-0.165D-01 0.315D-01 0.434D+00 0.571D+00
 Gap=     0.362 Goal=   None    Shift=    0.000
 RMSDP=4.69D-05 MaxDP=3.30D-03 DE=-2.77D-05 OVMax= 6.31D-04

 Cycle   7  Pass 0  IDiag  1:
 RMSU=  2.77D-05    CP:  8.72D-01  8.85D-01  5.93D-01  9.53D-01  1.75D+00
                    CP:  1.54D+00
 E= -656.478744663608     Delta-E=       -0.000001183097 Rises=F Damp=F
 DIIS: error= 2.20D-05 at cycle   7 NSaved=   7.
 NSaved= 7 IEnMin= 7 EnMin= -656.478744663608     IErMin= 7 ErrMin= 2.20D-05
 ErrMax= 2.20D-05  0.00D+00 EMaxC= 1.00D-01 BMatC= 2.93D-07 BMatP= 5.19D-06
 IDIUse=1 WtCom= 1.00D+00 WtEn= 0.00D+00
 Coeff-Com: -0.252D-03-0.437D-02-0.465D-02-0.448D-02 0.400D-01 0.172D+00
 Coeff-Com:  0.802D+00
 Coeff:     -0.252D-03-0.437D-02-0.465D-02-0.448D-02 0.400D-01 0.172D+00
 Coeff:      0.802D+00
 Gap=     0.362 Goal=   None    Shift=    0.000
 RMSDP=6.69D-05 MaxDP=4.78D-03 DE=-1.18D-06 OVMax= 2.24D-04

 Cycle   8  Pass 0  IDiag  1:
 RMSU=  2.19D-05    CP:  8.74D-01  8.90D-01  5.73D-01  9.24D-01  1.87D+00
                    CP:  2.16D+00  2.63D+00
 E= -656.478734836705     Delta-E=        0.000009826903 Rises=F Damp=F
 DIIS: error= 2.73D-05 at cycle   8 NSaved=   8.
 NSaved= 8 IEnMin= 7 EnMin= -656.478744663608     IErMin= 7 ErrMin= 2.20D-05
 ErrMax= 2.73D-05  0.00D+00 EMaxC= 1.00D-01 BMatC= 1.66D-07 BMatP= 2.93D-07
 IDIUse=1 WtCom= 1.00D+00 WtEn= 0.00D+00
 Coeff-Com: -0.994D-04-0.179D-02-0.194D-02-0.331D-02 0.708D-02 0.710D-01
 Coeff-Com:  0.457D+00 0.472D+00
 Coeff:     -0.994D-04-0.179D-02-0.194D-02-0.331D-02 0.708D-02 0.710D-01
 Coeff:      0.457D+00 0.472D+00
 Gap=     0.363 Goal=   None    Shift=    0.000
 RMSDP=4.67D-05 MaxDP=2.92D-03 DE= 9.83D-06 OVMax= 5.51D-05

 Cycle   9  Pass 0  IDiag  1:
 RMSU=  2.37D-05    CP:  8.75D-01  8.89D-01  5.61D-01  9.25D-01  1.83D+00
                    CP:  2.23D+00  3.00D+00  2.34D+00
 E= -656.478725723693     Delta-E=        0.000009113012 Rises=F Damp=F
 DIIS: error= 3.51D-05 at cycle   9 NSaved=   9.
 NSaved= 9 IEnMin= 7 EnMin= -656.478744663608     IErMin= 7 ErrMin= 2.20D-05
 ErrMax= 3.51D-05  0.00D+00 EMaxC= 1.00D-01 BMatC= 2.01D-07 BMatP= 1.66D-07
 IDIUse=1 WtCom= 1.00D+00 WtEn= 0.00D+00
 Coeff-Com: -0.682D-04-0.132D-02-0.156D-02-0.498D-02-0.890D-02 0.590D-01
 Coeff-Com:  0.529D+00 0.842D+00-0.413D+00
 Coeff:     -0.682D-04-0.132D-02-0.156D-02-0.498D-02-0.890D-02 0.590D-01
 Coeff:      0.529D+00 0.842D+00-0.413D+00
 Gap=     0.363 Goal=   None    Shift=    0.000
 RMSDP=3.25D-05 MaxDP=1.33D-03 DE= 9.11D-06 OVMax= 1.85D-05

 Cycle  10  Pass 0  IDiag  1:
 RMSU=  9.60D-06    CP:  8.74D-01  8.92D-01  5.65D-01  9.07D-01  1.92D+00
                    CP:  2.36D+00  3.00D+00  1.39D+00  2.19D-01
 E= -656.478731171577     Delta-E=       -0.000005447884 Rises=F Damp=F
 DIIS: error= 2.98D-05 at cycle  10 NSaved=  10.
 NSaved=10 IEnMin= 7 EnMin= -656.478744663608     IErMin= 7 ErrMin= 2.20D-05
 ErrMax= 2.98D-05  0.00D+00 EMaxC= 1.00D-01 BMatC= 1.51D-07 BMatP= 1.66D-07
 IDIUse=1 WtCom= 1.00D+00 WtEn= 0.00D+00
 Coeff-Com: -0.622D-04-0.117D-02-0.131D-02-0.357D-02-0.320D-02 0.484D-01
 Coeff-Com:  0.412D+00 0.710D+00-0.858D+00 0.697D+00
 Coeff:     -0.622D-04-0.117D-02-0.131D-02-0.357D-02-0.320D-02 0.484D-01
 Coeff:      0.412D+00 0.710D+00-0.858D+00 0.697D+00
 Gap=     0.363 Goal=   None    Shift=    0.000
 RMSDP=3.08D-05 MaxDP=1.52D-03 DE=-5.45D-06 OVMax= 1.39D-05

 Cycle  11  Pass 0  IDiag  1:
 RMSU=  1.11D-05    CP:  8.75D-01  8.96D-01  5.58D-01  8.79D-01  2.03D+00
                    CP:  2.63D+00  3.00D+00  1.13D+00  2.65D-01  2.81D+00
 E= -656.478732102802     Delta-E=       -0.000000931226 Rises=F Damp=F
 DIIS: error= 2.86D-05 at cycle  11 NSaved=  11.
 NSaved=11 IEnMin= 7 EnMin= -656.478744663608     IErMin= 7 ErrMin= 2.20D-05
 ErrMax= 2.86D-05  0.00D+00 EMaxC= 1.00D-01 BMatC= 1.59D-07 BMatP= 1.51D-07
 IDIUse=1 WtCom= 1.00D+00 WtEn= 0.00D+00
 Coeff-Com: -0.310D-04-0.647D-03-0.775D-03-0.401D-02-0.129D-01 0.301D-01
 Coeff-Com:  0.386D+00 0.905D+00-0.158D+01 0.223D+01-0.952D+00
 Coeff:     -0.310D-04-0.647D-03-0.775D-03-0.401D-02-0.129D-01 0.301D-01
 Coeff:      0.386D+00 0.905D+00-0.158D+01 0.223D+01-0.952D+00
 Gap=     0.363 Goal=   None    Shift=    0.000
 RMSDP=5.05D-05 MaxDP=3.18D-03 DE=-9.31D-07 OVMax= 1.52D-05

 Cycle  12  Pass 0  IDiag  1:
 RMSU=  1.64D-05    CP:  8.74D-01  8.90D-01  5.76D-01  9.15D-01  1.90D+00
                    CP:  2.32D+00  2.65D+00  4.65D-01 -1.96D-01  1.37D+00
                    CP: -5.10D-01
 E= -656.478736106421     Delta-E=       -0.000004003619 Rises=F Damp=F
 DIIS: error= 2.12D-05 at cycle  12 NSaved=  12.
 NSaved=12 IEnMin= 7 EnMin= -656.478744663608     IErMin=12 ErrMin= 2.12D-05
 ErrMax= 2.12D-05  0.00D+00 EMaxC= 1.00D-01 BMatC= 1.05D-07 BMatP= 1.51D-07
 IDIUse=1 WtCom= 1.00D+00 WtEn= 0.00D+00
 Coeff-Com: -0.271D-04-0.482D-03-0.449D-03-0.112D-02 0.861D-03 0.182D-01
 Coeff-Com:  0.164D+00 0.384D+00-0.144D+01 0.174D+01-0.137D+01 0.151D+01
 Coeff:     -0.271D-04-0.482D-03-0.449D-03-0.112D-02 0.861D-03 0.182D-01
 Coeff:      0.164D+00 0.384D+00-0.144D+01 0.174D+01-0.137D+01 0.151D+01
 Gap=     0.363 Goal=   None    Shift=    0.000
 RMSDP=6.36D-05 MaxDP=5.29D-03 DE=-4.00D-06 OVMax= 3.07D-05

 Cycle  13  Pass 0  IDiag  1:
 RMSU=  2.60D-05    CP:  8.72D-01  8.85D-01  5.99D-01  9.52D-01  1.76D+00
                    CP:  1.94D+00  1.34D+00 -1.38D-01 -3.18D-01  1.63D+00
                    CP: -8.27D-01  2.23D+00
 E= -656.478738883601     Delta-E=       -0.000002777180 Rises=F Damp=F
 DIIS: error= 1.25D-05 at cycle  13 NSaved=  13.
 NSaved=13 IEnMin= 7 EnMin= -656.478744663608     IErMin=13 ErrMin= 1.25D-05
 ErrMax= 1.25D-05  0.00D+00 EMaxC= 1.00D-01 BMatC= 3.56D-08 BMatP= 1.05D-07
 IDIUse=1 WtCom= 1.00D+00 WtEn= 0.00D+00
 Coeff-Com:  0.636D-05 0.383D-04-0.155D-04-0.184D-02-0.107D-01 0.167D-02
 Coeff-Com:  0.127D+00 0.261D+00-0.301D+00 0.398D+00-0.349D+00-0.593D-01
 Coeff-Com:  0.934D+00
 Coeff:      0.636D-05 0.383D-04-0.155D-04-0.184D-02-0.107D-01 0.167D-02
 Coeff:      0.127D+00 0.261D+00-0.301D+00 0.398D+00-0.349D+00-0.593D-01
 Coeff:      0.934D+00
 Gap=     0.363 Goal=   None    Shift=    0.000
 RMSDP=3.79D-05 MaxDP=1.85D-03 DE=-2.78D-06 OVMax= 2.85D-05

 Cycle  14  Pass 0  IDiag  1:
 RMSU=  2.39D-05    CP:  8.71D-01  8.84D-01  5.93D-01  9.79D-01  1.75D+00
                    CP:  1.72D+00  1.75D+00  3.34D-01 -1.42D-01  9.47D-01
                    CP: -1.98D-01  1.46D+00  1.40D+00
 E= -656.478737631387     Delta-E=        0.000001252213 Rises=F Damp=F
 DIIS: error= 1.08D-05 at cycle  14 NSaved=  14.
 NSaved=14 IEnMin= 7 EnMin= -656.478744663608     IErMin=14 ErrMin= 1.08D-05
 ErrMax= 1.08D-05  0.00D+00 EMaxC= 1.00D-01 BMatC= 2.66D-08 BMatP= 3.56D-08
 IDIUse=1 WtCom= 1.00D+00 WtEn= 0.00D+00
 Coeff-Com:  0.176D-04 0.271D-03 0.272D-03-0.919D-03-0.876D-02-0.812D-02
 Coeff-Com:  0.396D-01 0.190D+00-0.444D+00 0.732D+00-0.404D+00-0.186D+00
 Coeff-Com:  0.292D+00 0.798D+00
 Coeff:      0.176D-04 0.271D-03 0.272D-03-0.919D-03-0.876D-02-0.812D-02
 Coeff:      0.396D-01 0.190D+00-0.444D+00 0.732D+00-0.404D+00-0.186D+00
 Coeff:      0.292D+00 0.798D+00
 Gap=     0.363 Goal=   None    Shift=    0.000
 RMSDP=2.30D-05 MaxDP=1.00D-03 DE= 1.25D-06 OVMax= 2.06D-05

 Cycle  15  Pass 0  IDiag  1:
 RMSU=  1.68D-05    CP:  8.72D-01  8.85D-01  5.92D-01  9.79D-01  1.80D+00
                    CP:  1.83D+00  1.87D+00  6.49D-01 -2.93D-01  1.58D+00
                    CP:  2.45D-01  1.45D+00  1.51D+00  1.27D+00
 E= -656.478739168199     Delta-E=       -0.000001536811 Rises=F Damp=F
 DIIS: error= 1.27D-05 at cycle  15 NSaved=  15.
 NSaved=15 IEnMin= 7 EnMin= -656.478744663608     IErMin=14 ErrMin= 1.08D-05
 ErrMax= 1.27D-05  0.00D+00 EMaxC= 1.00D-01 BMatC= 2.83D-08 BMatP= 2.66D-08
 IDIUse=1 WtCom= 1.00D+00 WtEn= 0.00D+00
 Coeff-Com:  0.126D-04 0.202D-03 0.221D-03-0.326D-03-0.446D-02-0.528D-02
 Coeff-Com:  0.165D-01 0.107D+00-0.274D+00 0.564D+00-0.429D+00-0.119D+00
 Coeff-Com:  0.128D+00 0.554D+00 0.461D+00
 Coeff:      0.126D-04 0.202D-03 0.221D-03-0.326D-03-0.446D-02-0.528D-02
 Coeff:      0.165D-01 0.107D+00-0.274D+00 0.564D+00-0.429D+00-0.119D+00
 Coeff:      0.128D+00 0.554D+00 0.461D+00
 Gap=     0.363 Goal=   None    Shift=    0.000
 RMSDP=1.32D-05 MaxDP=5.46D-04 DE=-1.54D-06 OVMax= 9.27D-06

 Cycle  16  Pass 0  IDiag  1:
 RMSU=  5.54D-06    CP:  8.72D-01  8.85D-01  5.91D-01  9.88D-01  1.83D+00
                    CP:  1.87D+00  2.02D+00  8.33D-01 -2.62D-01  1.42D+00
                    CP:  4.49D-01  1.55D+00  1.57D+00  1.52D+00  1.36D+00
 E= -656.478736995236     Delta-E=        0.000002172962 Rises=F Damp=F
 DIIS: error= 1.56D-05 at cycle  16 NSaved=  16.
 NSaved=16 IEnMin= 7 EnMin= -656.478744663608     IErMin=14 ErrMin= 1.08D-05
 ErrMax= 1.56D-05  0.00D+00 EMaxC= 1.00D-01 BMatC= 4.13D-08 BMatP= 2.66D-08
 IDIUse=1 WtCom= 1.00D+00 WtEn= 0.00D+00
 Coeff-Com:  0.109D-04 0.164D-03 0.160D-03-0.855D-03-0.669D-02-0.389D-02
 Coeff-Com:  0.439D-01 0.140D+00-0.195D+00 0.598D+00-0.596D+00 0.167D-04
 Coeff-Com:  0.400D-01 0.430D+00 0.157D+01-0.102D+01
 Coeff:      0.109D-04 0.164D-03 0.160D-03-0.855D-03-0.669D-02-0.389D-02
 Coeff:      0.439D-01 0.140D+00-0.195D+00 0.598D+00-0.596D+00 0.167D-04
 Coeff:      0.400D-01 0.430D+00 0.157D+01-0.102D+01
 Gap=     0.363 Goal=   None    Shift=    0.000
 RMSDP=2.31D-05 MaxDP=1.30D-03 DE= 2.17D-06 OVMax= 1.23D-05

 Cycle  17  Pass 0  IDiag  1:
 RMSU=  1.29D-05    CP:  8.71D-01  8.84D-01  5.97D-01  9.87D-01  1.81D+00
                    CP:  1.68D+00  1.69D+00  8.38D-01 -2.43D-01  1.41D+00
                    CP:  2.29D-01  1.42D+00  1.46D+00  1.20D+00  1.09D+00
                    CP:  1.03D-02
 E= -656.478740315882     Delta-E=       -0.000003320646 Rises=F Damp=F
 DIIS: error= 1.57D-05 at cycle  17 NSaved=  17.
 NSaved=17 IEnMin= 7 EnMin= -656.478744663608     IErMin=14 ErrMin= 1.08D-05
 ErrMax= 1.57D-05  0.00D+00 EMaxC= 1.00D-01 BMatC= 2.95D-08 BMatP= 2.66D-08
 IDIUse=1 WtCom= 1.00D+00 WtEn= 0.00D+00
 Coeff-Com:  0.157D-04 0.239D-03 0.224D-03-0.108D-02-0.898D-02-0.628D-02
 Coeff-Com:  0.477D-01 0.161D+00-0.203D+00 0.547D+00-0.603D+00 0.125D+00
 Coeff-Com: -0.267D-01 0.334D+00 0.139D+01-0.145D+01 0.691D+00
 Coeff:      0.157D-04 0.239D-03 0.224D-03-0.108D-02-0.898D-02-0.628D-02
 Coeff:      0.477D-01 0.161D+00-0.203D+00 0.547D+00-0.603D+00 0.125D+00
 Coeff:     -0.267D-01 0.334D+00 0.139D+01-0.145D+01 0.691D+00
 Gap=     0.363 Goal=   None    Shift=    0.000
 RMSDP=1.36D-05 MaxDP=4.13D-04 DE=-3.32D-06 OVMax= 9.29D-06

 Cycle  18  Pass 0  IDiag  1:
 RMSU=  7.28D-06    CP:  8.71D-01  8.85D-01  5.96D-01  9.80D-01  1.83D+00
                    CP:  1.68D+00  1.65D+00  7.90D-01 -2.51D-01  1.34D+00
                    CP:  4.77D-01  1.36D+00  1.27D+00  9.77D-01  9.16D-01
                    CP: -5.09D-01  1.51D+00
 E= -656.478745201014     Delta-E=       -0.000004885132 Rises=F Damp=F
 DIIS: error= 1.74D-05 at cycle  18 NSaved=  18.
 NSaved=18 IEnMin=18 EnMin= -656.478745201014     IErMin=14 ErrMin= 1.08D-05
 ErrMax= 1.74D-05  0.00D+00 EMaxC= 1.00D-01 BMatC= 3.12D-08 BMatP= 2.66D-08
 IDIUse=1 WtCom= 1.00D+00 WtEn= 0.00D+00
 Coeff-Com:  0.167D-04 0.266D-03 0.268D-03-0.789D-03-0.779D-02-0.776D-02
 Coeff-Com:  0.282D-01 0.144D+00-0.264D+00 0.642D+00-0.664D+00 0.154D+00
 Coeff-Com: -0.346D-01 0.361D+00 0.129D+01-0.135D+01 0.283D+00 0.423D+00
 Coeff:      0.167D-04 0.266D-03 0.268D-03-0.789D-03-0.779D-02-0.776D-02
 Coeff:      0.282D-01 0.144D+00-0.264D+00 0.642D+00-0.664D+00 0.154D+00
 Coeff:     -0.346D-01 0.361D+00 0.129D+01-0.135D+01 0.283D+00 0.423D+00
 Gap=     0.363 Goal=   None    Shift=    0.000
 RMSDP=6.29D-06 MaxDP=2.66D-04 DE=-4.89D-06 OVMax= 3.46D-06

 Initial convergence to 1.0D-05 achieved.  Increase integral accuracy.
 Cycle  19  Pass 1  IDiag  1:
 E= -656.477380216297     Delta-E=        0.001364984717 Rises=F Damp=F
 DIIS: error= 2.65D-04 at cycle   1 NSaved=   1.
 NSaved= 1 IEnMin= 1 EnMin= -656.477380216297     IErMin= 1 ErrMin= 2.65D-04
 ErrMax= 2.65D-04  0.00D+00 EMaxC= 1.00D-01 BMatC= 6.12D-05 BMatP= 6.12D-05
 IDIUse=3 WtCom= 9.97D-01 WtEn= 2.65D-03
 Coeff-Com:  0.100D+01
 Coeff-En:   0.100D+01
 Coeff:      0.100D+01
 Gap=     0.362 Goal=   None    Shift=    0.000
 RMSDP=6.29D-06 MaxDP=2.66D-04 DE= 1.36D-03 OVMax= 5.86D-04

 Cycle  20  Pass 1  IDiag  1:
 RMSU=  7.33D-04    CP:  9.79D-01
 E= -656.477410429707     Delta-E=       -0.000030213409 Rises=F Damp=F
 DIIS: error= 8.29D-06 at cycle   2 NSaved=   2.
 NSaved= 2 IEnMin= 2 EnMin= -656.477410429707     IErMin= 2 ErrMin= 8.29D-06
 ErrMax= 8.29D-06  0.00D+00 EMaxC= 1.00D-01 BMatC= 1.90D-07 BMatP= 6.12D-05
 IDIUse=1 WtCom= 1.00D+00 WtEn= 0.00D+00
 Coeff-Com: -0.315D-01 0.103D+01
 Coeff:     -0.315D-01 0.103D+01
 Gap=     0.362 Goal=   None    Shift=    0.000
 RMSDP=4.18D-05 MaxDP=1.63D-03 DE=-3.02D-05 OVMax= 6.80D-05

 Cycle  21  Pass 1  IDiag  1:
 RMSU=  1.23D-05    CP:  9.78D-01  1.05D+00
 E= -656.477410601957     Delta-E=       -0.000000172250 Rises=F Damp=F
 DIIS: error= 6.66D-06 at cycle   3 NSaved=   3.
 NSaved= 3 IEnMin= 3 EnMin= -656.477410601957     IErMin= 3 ErrMin= 6.66D-06
 ErrMax= 6.66D-06  0.00D+00 EMaxC= 1.00D-01 BMatC= 4.84D-08 BMatP= 1.90D-07
 IDIUse=1 WtCom= 1.00D+00 WtEn= 0.00D+00
 Coeff-Com: -0.122D-01 0.337D+00 0.675D+00
 Coeff:     -0.122D-01 0.337D+00 0.675D+00
 Gap=     0.362 Goal=   None    Shift=    0.000
 RMSDP=1.55D-06 MaxDP=7.76D-05 DE=-1.72D-07 OVMax= 5.00D-05

 Cycle  22  Pass 1  IDiag  1:
 RMSU=  9.11D-07    CP:  9.78D-01  1.06D+00  1.04D+00
 E= -656.477410630455     Delta-E=       -0.000000028498 Rises=F Damp=F
 DIIS: error= 3.38D-06 at cycle   4 NSaved=   4.
 NSaved= 4 IEnMin= 4 EnMin= -656.477410630455     IErMin= 4 ErrMin= 3.38D-06
 ErrMax= 3.38D-06  0.00D+00 EMaxC= 1.00D-01 BMatC= 1.15D-08 BMatP= 4.84D-08
 IDIUse=1 WtCom= 1.00D+00 WtEn= 0.00D+00
 Coeff-Com:  0.106D-03-0.328D-01 0.311D+00 0.721D+00
 Coeff:      0.106D-03-0.328D-01 0.311D+00 0.721D+00
 Gap=     0.362 Goal=   None    Shift=    0.000
 RMSDP=8.63D-07 MaxDP=6.79D-05 DE=-2.85D-08 OVMax= 1.66D-05

 Cycle  23  Pass 1  IDiag  1:
 RMSU=  4.43D-07    CP:  9.78D-01  1.06D+00  1.07D+00  9.44D-01
 E= -656.477410639403     Delta-E=       -0.000000008948 Rises=F Damp=F
 DIIS: error= 5.27D-07 at cycle   5 NSaved=   5.
 NSaved= 5 IEnMin= 5 EnMin= -656.477410639403     IErMin= 5 ErrMin= 5.27D-07
 ErrMax= 5.27D-07  0.00D+00 EMaxC= 1.00D-01 BMatC= 3.30D-10 BMatP= 1.15D-08
 IDIUse=1 WtCom= 1.00D+00 WtEn= 0.00D+00
 Coeff-Com:  0.681D-03-0.263D-01 0.398D-01 0.185D+00 0.800D+00
 Coeff:      0.681D-03-0.263D-01 0.398D-01 0.185D+00 0.800D+00
 Gap=     0.362 Goal=   None    Shift=    0.000
 RMSDP=1.13D-07 MaxDP=6.27D-06 DE=-8.95D-09 OVMax= 5.11D-06

 Cycle  24  Pass 1  IDiag  1:
 RMSU=  6.27D-08    CP:  9.78D-01  1.06D+00  1.07D+00  9.87D-01  1.15D+00
 E= -656.477410639894     Delta-E=       -0.000000000490 Rises=F Damp=F
 DIIS: error= 3.02D-07 at cycle   6 NSaved=   6.
 NSaved= 6 IEnMin= 6 EnMin= -656.477410639894     IErMin= 6 ErrMin= 3.02D-07
 ErrMax= 3.02D-07  0.00D+00 EMaxC= 1.00D-01 BMatC= 6.46D-11 BMatP= 3.30D-10
 IDIUse=1 WtCom= 1.00D+00 WtEn= 0.00D+00
 Coeff-Com:  0.242D-03-0.613D-02-0.204D-01-0.125D-01 0.309D+00 0.730D+00
 Coeff:      0.242D-03-0.613D-02-0.204D-01-0.125D-01 0.309D+00 0.730D+00
 Gap=     0.362 Goal=   None    Shift=    0.000
 RMSDP=4.09D-08 MaxDP=2.00D-06 DE=-4.90D-10 OVMax= 3.26D-06

 Cycle  25  Pass 1  IDiag  1:
 RMSU=  2.62D-08    CP:  9.78D-01  1.06D+00  1.07D+00  9.87D-01  1.21D+00
                    CP:  1.08D+00
 E= -656.477410639901     Delta-E=       -0.000000000007 Rises=F Damp=F
 DIIS: error= 1.33D-07 at cycle   7 NSaved=   7.
 NSaved= 7 IEnMin= 7 EnMin= -656.477410639901     IErMin= 7 ErrMin= 1.33D-07
 ErrMax= 1.33D-07  0.00D+00 EMaxC= 1.00D-01 BMatC= 7.25D-12 BMatP= 6.46D-11
 IDIUse=1 WtCom= 1.00D+00 WtEn= 0.00D+00
 Coeff-Com: -0.414D-05 0.124D-02-0.120D-01-0.282D-01-0.205D-02 0.248D+00
 Coeff-Com:  0.793D+00
 Coeff:     -0.414D-05 0.124D-02-0.120D-01-0.282D-01-0.205D-02 0.248D+00
 Coeff:      0.793D+00
 Gap=     0.362 Goal=   None    Shift=    0.000
 RMSDP=1.81D-08 MaxDP=7.42D-07 DE=-7.28D-12 OVMax= 1.44D-06

 Cycle  26  Pass 1  IDiag  1:
 RMSU=  1.05D-08    CP:  9.78D-01  1.06D+00  1.07D+00  9.85D-01  1.23D+00
                    CP:  1.19D+00  1.14D+00
 E= -656.477410639966     Delta-E=       -0.000000000065 Rises=F Damp=F
 DIIS: error= 5.07D-08 at cycle   8 NSaved=   8.
 NSaved= 8 IEnMin= 8 EnMin= -656.477410639966     IErMin= 8 ErrMin= 5.07D-08
 ErrMax= 5.07D-08  0.00D+00 EMaxC= 1.00D-01 BMatC= 1.37D-12 BMatP= 7.25D-12
 IDIUse=1 WtCom= 1.00D+00 WtEn= 0.00D+00
 Coeff-Com: -0.316D-04 0.133D-02-0.294D-02-0.116D-01-0.417D-01 0.241D-01
 Coeff-Com:  0.356D+00 0.675D+00
 Coeff:     -0.316D-04 0.133D-02-0.294D-02-0.116D-01-0.417D-01 0.241D-01
 Coeff:      0.356D+00 0.675D+00
 Gap=     0.362 Goal=   None    Shift=    0.000
 RMSDP=4.96D-09 MaxDP=2.14D-07 DE=-6.50D-11 OVMax= 5.55D-07

 SCF Done:  E(RwB97XD) =  -656.477410640     A.U. after   26 cycles
            NFock= 26  Conv=0.50D-08     -V/T= 2.0052
 KE= 6.530942220246D+02 PE=-3.649202162003D+03 EE= 1.277913661462D+03
 Leave Link  502 at Fri Jul 22 17:20:23 2016, MaxMem=  3221225472 cpu:     16327.7
 (Enter /cm/shared/apps/gaussian/g09D01/g09/l601.exe)
 Copying SCF densities to generalized density rwf, IOpCl= 0 IROHF=0.

 **********************************************************************

            Population analysis using the SCF density.

 **********************************************************************

 Alpha  occ. eigenvalues --  -19.25489 -10.34508 -10.30114 -10.29756 -10.29371
 Alpha  occ. eigenvalues --  -10.29267 -10.28621 -10.28615 -10.28527 -10.28396
 Alpha  occ. eigenvalues --  -10.28342 -10.28285 -10.28245 -10.28063 -10.27928
 Alpha  occ. eigenvalues --  -10.26742  -1.13449  -0.96913  -0.95655  -0.88583
 Alpha  occ. eigenvalues --   -0.88280  -0.85037  -0.84238  -0.80321  -0.77705
 Alpha  occ. eigenvalues --   -0.76164  -0.70279  -0.68838  -0.67058  -0.66374
 Alpha  occ. eigenvalues --   -0.61414  -0.60100  -0.59224  -0.56201  -0.54001
 Alpha  occ. eigenvalues --   -0.53059  -0.52902  -0.52042  -0.50821  -0.50383
 Alpha  occ. eigenvalues --   -0.50054  -0.49860  -0.48919  -0.48735  -0.45605
 Alpha  occ. eigenvalues --   -0.45518  -0.44664  -0.43504  -0.43231  -0.42237
 Alpha  occ. eigenvalues --   -0.41961  -0.40256  -0.37133  -0.32892  -0.32306
 Alpha  occ. eigenvalues --   -0.31746  -0.31517
 Alpha virt. eigenvalues --    0.04730   0.05708   0.05805   0.06592   0.10314
 Alpha virt. eigenvalues --    0.12997   0.13373   0.13635   0.14690   0.15711
 Alpha virt. eigenvalues --    0.16522   0.17017   0.17469   0.18142   0.19166
 Alpha virt. eigenvalues --    0.19957   0.20052   0.21261   0.21617   0.22126
 Alpha virt. eigenvalues --    0.22341   0.22815   0.23628   0.24243   0.25319
 Alpha virt. eigenvalues --    0.26261   0.26679   0.27393   0.27771   0.28959
 Alpha virt. eigenvalues --    0.29143   0.29797   0.29990   0.31111   0.31554
 Alpha virt. eigenvalues --    0.31959   0.32490   0.32581   0.33244   0.33564
 Alpha virt. eigenvalues --    0.34543   0.35378   0.35725   0.36566   0.36614
 Alpha virt. eigenvalues --    0.37814   0.38192   0.38753   0.39476   0.40282
 Alpha virt. eigenvalues --    0.40968   0.41363   0.42523   0.43082   0.43929
 Alpha virt. eigenvalues --    0.44284   0.45172   0.45434   0.45878   0.46209
 Alpha virt. eigenvalues --    0.46820   0.46933   0.47847   0.48349   0.48654
 Alpha virt. eigenvalues --    0.49419   0.49590   0.50416   0.50610   0.50980
 Alpha virt. eigenvalues --    0.51526   0.51818   0.52305   0.53324   0.53716
 Alpha virt. eigenvalues --    0.54410   0.54752   0.55236   0.56003   0.56676
 Alpha virt. eigenvalues --    0.57248   0.57659   0.57929   0.58739   0.59160
 Alpha virt. eigenvalues --    0.59620   0.59987   0.60423   0.61041   0.61843
 Alpha virt. eigenvalues --    0.62250   0.63479   0.64080   0.65044   0.66664
 Alpha virt. eigenvalues --    0.67875   0.67981   0.68710   0.70476   0.72244
 Alpha virt. eigenvalues --    0.72912   0.74191   0.75038   0.76039   0.76680
 Alpha virt. eigenvalues --    0.77037   0.77680   0.78390   0.79005   0.79448
 Alpha virt. eigenvalues --    0.80570   0.81086   0.81600   0.82834   0.83679
 Alpha virt. eigenvalues --    0.84010   0.85658   0.86375   0.87247   0.87367
 Alpha virt. eigenvalues --    0.88695   0.90037   0.90458   0.91152   0.92092
 Alpha virt. eigenvalues --    0.93069   0.93550   0.94071   0.96345   0.96868
 Alpha virt. eigenvalues --    0.97303   0.98424   0.99722   1.00154   1.00980
 Alpha virt. eigenvalues --    1.01552   1.03690   1.05064   1.06071   1.06843
 Alpha virt. eigenvalues --    1.07360   1.07763   1.08340   1.10731   1.11633
 Alpha virt. eigenvalues --    1.12239   1.12829   1.13125   1.15378   1.17216
 Alpha virt. eigenvalues --    1.18709   1.20019   1.20655   1.21875   1.22488
 Alpha virt. eigenvalues --    1.23345   1.24243   1.25102   1.25926   1.27648
 Alpha virt. eigenvalues --    1.28651   1.30118   1.30950   1.32023   1.32350
 Alpha virt. eigenvalues --    1.33272   1.34478   1.34738   1.36002   1.36087
 Alpha virt. eigenvalues --    1.37654   1.38380   1.39134   1.40330   1.41282
 Alpha virt. eigenvalues --    1.41965   1.43326   1.45195   1.47211   1.48673
 Alpha virt. eigenvalues --    1.49604   1.49734   1.51461   1.51922   1.53728
 Alpha virt. eigenvalues --    1.55317   1.55619   1.56570   1.57730   1.59078
 Alpha virt. eigenvalues --    1.59551   1.60608   1.61232   1.61964   1.62969
 Alpha virt. eigenvalues --    1.63455   1.64178   1.65001   1.66086   1.66776
 Alpha virt. eigenvalues --    1.67079   1.67824   1.68919   1.69732   1.70648
 Alpha virt. eigenvalues --    1.71937   1.72820   1.73147   1.74553   1.75195
 Alpha virt. eigenvalues --    1.75616   1.76752   1.77057   1.78119   1.79106
 Alpha virt. eigenvalues --    1.79272   1.79571   1.80345   1.80805   1.81298
 Alpha virt. eigenvalues --    1.82850   1.83186   1.84960   1.85791   1.87152
 Alpha virt. eigenvalues --    1.89061   1.89759   1.93155   1.94483   1.96042
 Alpha virt. eigenvalues --    1.97075   1.98308   2.00679   2.01857   2.04172
 Alpha virt. eigenvalues --    2.04951   2.06973   2.07636   2.07939   2.09300
 Alpha virt. eigenvalues --    2.10260   2.11393   2.14066   2.14346   2.15930
 Alpha virt. eigenvalues --    2.16332   2.16819   2.17920   2.18665   2.19851
 Alpha virt. eigenvalues --    2.20707   2.21598   2.22075   2.23439   2.25387
 Alpha virt. eigenvalues --    2.25920   2.27500   2.28039   2.28265   2.29781
 Alpha virt. eigenvalues --    2.31073   2.31224   2.32289   2.33754   2.34110
 Alpha virt. eigenvalues --    2.35827   2.36480   2.39372   2.41385   2.42719
 Alpha virt. eigenvalues --    2.43781   2.46032   2.47512   2.49823   2.50631
 Alpha virt. eigenvalues --    2.51572   2.53130   2.53550   2.55663   2.57235
 Alpha virt. eigenvalues --    2.58177   2.59317   2.60643   2.61070   2.61275
 Alpha virt. eigenvalues --    2.62658   2.63044   2.63973   2.64776   2.65373
 Alpha virt. eigenvalues --    2.67083   2.67683   2.69481   2.69978   2.70112
 Alpha virt. eigenvalues --    2.70988   2.72071   2.72590   2.73484   2.75806
 Alpha virt. eigenvalues --    2.76508   2.76906   2.77564   2.77663   2.79176
 Alpha virt. eigenvalues --    2.79459   2.79621   2.81385   2.82309   2.83317
 Alpha virt. eigenvalues --    2.84084   2.84685   2.85675   2.86843   2.87295
 Alpha virt. eigenvalues --    2.89062   2.89097   2.90172   2.91338   2.91517
 Alpha virt. eigenvalues --    2.93267   2.93850   2.94268   2.94854   2.95674
 Alpha virt. eigenvalues --    2.96559   2.97483   2.98628   2.99470   3.00052
 Alpha virt. eigenvalues --    3.01229   3.01754   3.02591   3.03293   3.03772
 Alpha virt. eigenvalues --    3.06262   3.06764   3.08185   3.09041   3.09511
 Alpha virt. eigenvalues --    3.10297   3.11124   3.11597   3.12373   3.15178
 Alpha virt. eigenvalues --    3.16436   3.17774   3.18137   3.19926   3.20919
 Alpha virt. eigenvalues --    3.21306   3.22795   3.23091   3.23493   3.24832
 Alpha virt. eigenvalues --    3.24929   3.25652   3.26390   3.27587   3.27932
 Alpha virt. eigenvalues --    3.29493   3.30078   3.31082   3.31964   3.32393
 Alpha virt. eigenvalues --    3.32927   3.33651   3.34417   3.34943   3.35878
 Alpha virt. eigenvalues --    3.36498   3.37492   3.38155   3.38863   3.39459
 Alpha virt. eigenvalues --    3.40098   3.41327   3.42010   3.43019   3.44081
 Alpha virt. eigenvalues --    3.44469   3.45391   3.46576   3.47373   3.48372
 Alpha virt. eigenvalues --    3.50055   3.50310   3.50853   3.51852   3.52312
 Alpha virt. eigenvalues --    3.52576   3.53339   3.55374   3.56118   3.57179
 Alpha virt. eigenvalues --    3.58288   3.58620   3.59434   3.60171   3.61939
 Alpha virt. eigenvalues --    3.62887   3.63621   3.65402   3.65631   3.66094
 Alpha virt. eigenvalues --    3.67664   3.69302   3.70422   3.72143   3.73128
 Alpha virt. eigenvalues --    3.73430   3.74180   3.76717   3.77310   3.78589
 Alpha virt. eigenvalues --    3.80159   3.81422   3.83076   3.84526   3.85737
 Alpha virt. eigenvalues --    3.87589   3.89959   3.90548   3.91952   3.94130
 Alpha virt. eigenvalues --    3.95566   3.97536   3.97991   3.99683   4.01277
 Alpha virt. eigenvalues --    4.02897   4.03974   4.06351   4.07331   4.08646
 Alpha virt. eigenvalues --    4.09443   4.09963   4.11379   4.13891   4.15398
 Alpha virt. eigenvalues --    4.18124   4.18549   4.21720   4.22512   4.25373
 Alpha virt. eigenvalues --    4.27100   4.27746   4.28238   4.29569   4.31084
 Alpha virt. eigenvalues --    4.31863   4.32626   4.33469   4.33989   4.35294
 Alpha virt. eigenvalues --    4.35721   4.37615   4.38163   4.39041   4.41906
 Alpha virt. eigenvalues --    4.43402   4.44009   4.44333   4.44506   4.47157
 Alpha virt. eigenvalues --    4.48481   4.50917   4.52533   4.56028   4.58563
 Alpha virt. eigenvalues --    4.60171   4.62982   4.64306   4.67200   4.70756
 Alpha virt. eigenvalues --    4.73417   4.74655   4.77948   4.79188   4.82632
 Alpha virt. eigenvalues --    4.83270   4.84781   4.85450   4.86383   4.89219
 Alpha virt. eigenvalues --    4.97813   4.99306   5.00108   5.01269   5.08917
 Alpha virt. eigenvalues --    5.10107   5.11275   5.21201   5.26222   5.29894
 Alpha virt. eigenvalues --    5.32301   5.33950   5.35436   5.38503   5.40385
 Alpha virt. eigenvalues --    5.43925   5.47933   5.56482   5.57573   5.59999
 Alpha virt. eigenvalues --    5.60421   5.64920   5.72740   5.76407   5.86345
 Alpha virt. eigenvalues --    5.91196   5.95055   6.07732   6.46996   6.61490
 Alpha virt. eigenvalues --    6.87287   6.92520   7.14881   7.33244  22.20973
 Alpha virt. eigenvalues --   22.28012  22.55753  22.60635  22.71061  22.73578
 Alpha virt. eigenvalues --   22.83693  22.86701  22.91644  22.91956  22.96812
 Alpha virt. eigenvalues --   23.07771  23.17135  23.38544  23.69503  44.24376
          Condensed to atoms (all electrons):
               1          2          3          4          5          6
     1  C    5.156451   0.464718   0.158130  -0.004267  -0.081790  -0.069336
     2  H    0.464718   0.605855  -0.067443  -0.000440  -0.044307   0.013387
     3  C    0.158130  -0.067443   6.093391  -0.169307   0.058746   0.135804
     4  C   -0.004267  -0.000440  -0.169307   4.975318   0.084076   0.083680
     5  C   -0.081790  -0.044307   0.058746   0.084076   5.399019   0.044500
     6  C   -0.069336   0.013387   0.135804   0.083680   0.044500   5.352791
     7  C    0.012118   0.000858   0.087695   0.371295  -0.159831   0.398902
     8  C    0.021018   0.001931   0.079046   0.383026   0.364154  -0.135956
     9  H   -0.000102   0.000001   0.029848  -0.062020  -0.005219  -0.080985
    10  H   -0.000317   0.000001   0.031853  -0.060728  -0.077235  -0.006118
    11  H    0.000016  -0.000003  -0.008058   0.460859   0.018059   0.017543
    12  C    0.106147  -0.054914   0.003928  -0.000939   0.014319  -0.044399
    13  C   -0.001444   0.000700  -0.000804   0.000004  -0.000164   0.000722
    14  C   -0.074197   0.005624   0.008207  -0.000716  -0.003397   0.002705
    15  C   -0.055224   0.003827  -0.005578   0.000029  -0.002482   0.010284
    16  C    0.008488  -0.001071   0.001157   0.000000   0.000285  -0.001569
    17  C    0.006927  -0.001759   0.003288  -0.000068   0.002156  -0.001544
    18  H   -0.001349   0.001765  -0.002600   0.000226  -0.001007   0.001715
    19  H   -0.012233   0.001609  -0.000907  -0.000002  -0.000287   0.001188
    20  H   -0.000538  -0.000004   0.000048   0.000000   0.000000  -0.000008
    21  H   -0.000387  -0.000010   0.000088  -0.000002  -0.000025   0.000031
    22  H    0.000115   0.000000  -0.000011   0.000000   0.000000   0.000003
    23  O    0.286189  -0.034636  -0.013112   0.000338   0.004286   0.014907
    24  H   -0.043190  -0.006528   0.008243  -0.000031   0.004954  -0.006053
    25  C   -0.000049  -0.002569  -0.103053   0.014335   0.021218   0.269237
    26  H    0.005653   0.001249  -0.024490  -0.000154  -0.000120  -0.036791
    27  H   -0.001240   0.000013   0.024074   0.000533  -0.000667  -0.064473
    28  H   -0.011806   0.000142  -0.017564   0.000060   0.000385  -0.008639
    29  C   -0.014773   0.017382  -0.099369   0.014483   0.257149   0.023126
    30  H   -0.002665  -0.006821  -0.009712   0.000149  -0.034393   0.001164
    31  H    0.000646   0.001584   0.020489   0.000558  -0.055158  -0.000691
    32  H   -0.007841  -0.006438  -0.017273   0.000114  -0.038292   0.000400
               7          8          9         10         11         12
     1  C    0.012118   0.021018  -0.000102  -0.000317   0.000016   0.106147
     2  H    0.000858   0.001931   0.000001   0.000001  -0.000003  -0.054914
     3  C    0.087695   0.079046   0.029848   0.031853  -0.008058   0.003928
     4  C    0.371295   0.383026  -0.062020  -0.060728   0.460859  -0.000939
     5  C   -0.159831   0.364154  -0.005219  -0.077235   0.018059   0.014319
     6  C    0.398902  -0.135956  -0.080985  -0.006118   0.017543  -0.044399
     7  C    5.120511   0.078753   0.453975   0.013997  -0.067337   0.003206
     8  C    0.078753   5.133865   0.013504   0.448923  -0.069017   0.001877
     9  H    0.453975   0.013504   0.564428  -0.000147  -0.007866   0.000036
    10  H    0.013997   0.448923  -0.000147   0.567676  -0.007845   0.000064
    11  H   -0.067337  -0.069017  -0.007866  -0.007845   0.549696  -0.000015
    12  C    0.003206   0.001877   0.000036   0.000064  -0.000015   5.543826
    13  C    0.000001   0.000011  -0.000002   0.000000   0.000000  -0.114939
    14  C    0.003340   0.000284   0.000091  -0.000045  -0.000002   0.347367
    15  C    0.000159   0.000384  -0.000027  -0.000002   0.000000   0.240881
    16  C   -0.000061  -0.000011   0.000002   0.000000   0.000000   0.055492
    17  C   -0.000127  -0.000056  -0.000003  -0.000002   0.000000   0.035941
    18  H   -0.000074   0.000898  -0.000015   0.000029  -0.000003  -0.063558
    19  H    0.000029   0.000015  -0.000001   0.000000   0.000000  -0.051099
    20  H    0.000000   0.000000   0.000000   0.000000   0.000000   0.015171
    21  H    0.000000  -0.000004   0.000000   0.000000   0.000000   0.013180
    22  H    0.000000   0.000000   0.000000   0.000000   0.000000  -0.003527
    23  O   -0.000225  -0.001849   0.000034   0.000010   0.000000  -0.147157
    24  H   -0.000194  -0.000431   0.000008   0.000002   0.000000   0.021971
    25  C   -0.079806  -0.004374  -0.013484   0.000016  -0.000018   0.025177
    26  H    0.003152  -0.000050   0.000110  -0.000002   0.000005  -0.014843
    27  H   -0.005220   0.000319   0.005909   0.000000  -0.000073   0.001044
    28  H   -0.005702  -0.000160   0.000053  -0.000002   0.000014  -0.002091
    29  C   -0.004403  -0.080194   0.000036  -0.015386  -0.000048  -0.009689
    30  H   -0.000237  -0.005009  -0.000003   0.000024   0.000012  -0.001602
    31  H    0.000365  -0.007428   0.000001   0.006235  -0.000068  -0.000144
    32  H   -0.000147  -0.001637  -0.000003  -0.000065   0.000011   0.002583
              13         14         15         16         17         18
     1  C   -0.001444  -0.074197  -0.055224   0.008488   0.006927  -0.001349
     2  H    0.000700   0.005624   0.003827  -0.001071  -0.001759   0.001765
     3  C   -0.000804   0.008207  -0.005578   0.001157   0.003288  -0.002600
     4  C    0.000004  -0.000716   0.000029   0.000000  -0.000068   0.000226
     5  C   -0.000164  -0.003397  -0.002482   0.000285   0.002156  -0.001007
     6  C    0.000722   0.002705   0.010284  -0.001569  -0.001544   0.001715
     7  C    0.000001   0.003340   0.000159  -0.000061  -0.000127  -0.000074
     8  C    0.000011   0.000284   0.000384  -0.000011  -0.000056   0.000898
     9  H   -0.000002   0.000091  -0.000027   0.000002  -0.000003  -0.000015
    10  H    0.000000  -0.000045  -0.000002   0.000000  -0.000002   0.000029
    11  H    0.000000  -0.000002   0.000000   0.000000   0.000000  -0.000003
    12  C   -0.114939   0.347367   0.240881   0.055492   0.035941  -0.063558
    13  C    4.965179   0.039836   0.059651   0.404780   0.412394   0.008915
    14  C    0.039836   5.119059   0.036997  -0.094159   0.404637   0.440685
    15  C    0.059651   0.036997   5.218953   0.374805  -0.093979   0.010405
    16  C    0.404780  -0.094159   0.374805   4.982050   0.038015  -0.003187
    17  C    0.412394   0.404637  -0.093979   0.038015   4.971865  -0.045390
    18  H    0.008915   0.440685   0.010405  -0.003187  -0.045390   0.515225
    19  H    0.011694   0.014922   0.444627  -0.060176  -0.004929   0.000016
    20  H   -0.059703  -0.003758  -0.062973   0.451622   0.011635   0.000034
    21  H   -0.057291  -0.058958  -0.003814   0.011247   0.448572  -0.006539
    22  H    0.447492   0.011581   0.011140  -0.057560  -0.057828  -0.000126
    23  O    0.000632   0.003881   0.032411  -0.002336  -0.000486  -0.000005
    24  H   -0.000032  -0.000745  -0.004712   0.000112   0.000075  -0.000044
    25  C    0.000178  -0.008517  -0.000873   0.000510   0.001346  -0.000089
    26  H    0.000180   0.002945  -0.000315  -0.001015  -0.000124   0.000012
    27  H   -0.000053   0.000422   0.000215   0.000039  -0.000079  -0.000016
    28  H    0.001409  -0.002084   0.001686  -0.000962  -0.000350   0.000520
    29  C    0.000038   0.001794   0.000054  -0.000019  -0.000251  -0.000854
    30  H   -0.000015   0.001646   0.000011   0.000004   0.000026  -0.000378
    31  H    0.000000  -0.000061  -0.000006   0.000000  -0.000004   0.000075
    32  H   -0.000003   0.000176  -0.000084   0.000003   0.000036   0.000065
              19         20         21         22         23         24
     1  C   -0.012233  -0.000538  -0.000387   0.000115   0.286189  -0.043190
     2  H    0.001609  -0.000004  -0.000010   0.000000  -0.034636  -0.006528
     3  C   -0.000907   0.000048   0.000088  -0.000011  -0.013112   0.008243
     4  C   -0.000002   0.000000  -0.000002   0.000000   0.000338  -0.000031
     5  C   -0.000287   0.000000  -0.000025   0.000000   0.004286   0.004954
     6  C    0.001188  -0.000008   0.000031   0.000003   0.014907  -0.006053
     7  C    0.000029   0.000000   0.000000   0.000000  -0.000225  -0.000194
     8  C    0.000015   0.000000  -0.000004   0.000000  -0.001849  -0.000431
     9  H   -0.000001   0.000000   0.000000   0.000000   0.000034   0.000008
    10  H    0.000000   0.000000   0.000000   0.000000   0.000010   0.000002
    11  H    0.000000   0.000000   0.000000   0.000000   0.000000   0.000000
    12  C   -0.051099   0.015171   0.013180  -0.003527  -0.147157   0.021971
    13  C    0.011694  -0.059703  -0.057291   0.447492   0.000632  -0.000032
    14  C    0.014922  -0.003758  -0.058958   0.011581   0.003881  -0.000745
    15  C    0.444627  -0.062973  -0.003814   0.011140   0.032411  -0.004712
    16  C   -0.060176   0.451622   0.011247  -0.057560  -0.002336   0.000112
    17  C   -0.004929   0.011635   0.448572  -0.057828  -0.000486   0.000075
    18  H    0.000016   0.000034  -0.006539  -0.000126  -0.000005  -0.000044
    19  H    0.498580  -0.006597   0.000017  -0.000060   0.019883  -0.001511
    20  H   -0.006597   0.546294  -0.000111  -0.007457  -0.000139   0.000002
    21  H    0.000017  -0.000111   0.545354  -0.007228   0.000003  -0.000001
    22  H   -0.000060  -0.007457  -0.007228   0.546653   0.000000   0.000000
    23  O    0.019883  -0.000139   0.000003   0.000000   8.017339   0.302517
    24  H   -0.001511   0.000002  -0.000001   0.000000   0.302517   0.408349
    25  C   -0.000748  -0.000017   0.000003  -0.000001  -0.031900   0.002406
    26  H    0.001089  -0.000012   0.000000   0.000000   0.018774  -0.001512
    27  H   -0.000024   0.000001   0.000000   0.000000   0.000642  -0.000014
    28  H    0.000310  -0.000040  -0.000030   0.000000   0.001315  -0.000002
    29  C    0.000043   0.000000  -0.000004   0.000000  -0.003368  -0.001337
    30  H   -0.000006   0.000000  -0.000001   0.000000   0.000228   0.000159
    31  H    0.000000   0.000000   0.000000   0.000000  -0.000033  -0.000018
    32  H   -0.000011   0.000000   0.000000   0.000000   0.001464   0.000229
              25         26         27         28         29         30
     1  C   -0.000049   0.005653  -0.001240  -0.011806  -0.014773  -0.002665
[...]
 2254,0.00047083,0.00795863,-0.02480180,-0.00186558,0.00053815,-0.00207
 861,0.00032495,0.00003152,-0.00006979,-0.00007843,-0.00044638,0.000322
 85,-0.00028986,-0.00002911,0.00004062,0.00002808,0.00003899,0.00004759
 ,0.00003971,-0.00045573,0.00038606,0.00032376,0.00002204,-0.00006412,0
 .00013985,-0.00005373,0.00021933,-0.00040169,-0.00000621,0.00036053,0.
 00014342,0.00022236,0.00007090,-0.00012390,-0.00002273,-0.00005562,-0.
 00004383,0.00000626,-0.00000604,0.00003878,0.00003505,-0.00007055,0.00
 004237,-0.00002837,0.00000221,-0.00001160,-0.00001049,0.00000492,0.000
 02375,-0.00002059,0.00000731,0.00001725,0.00018668,0.00042147,-0.00008
 967,-0.00003132,0.00002020,0.00000020,-0.08593136,0.09893699,0.0059293
 9,-0.00506974,0.00993732,0.00283899,0.09494105,-0.00014643,0.00059703,
 -0.00013868,0.00007097,-0.00005571,0.00000357,-0.00344773,-0.00074401,
 -0.00198856,-0.00057016,0.00001698,0.00018853,0.00084151,-0.00081553,0
 .00072140,0.00777060,-0.02074925,-0.00056607,0.00259839,0.00106325,0.0
 0181611,-0.00012871,0.00044032,-0.00013503,-0.00059577,0.00091247,-0.0
 0079819,-0.00001898,0.00006344,-0.00009116,-0.00001540,-0.00001980,-0.
 00003268,-0.00004813,-0.00010050,0.00006794,0.00002879,0.00001095,-0.0
 0004600,0.00001278,0.00001844,0.00009547,-0.00003412,-0.00001046,-0.00
 010185,-0.00002461,-0.00000773,0.00000977,0.00003761,0.00001896,0.0000
 0880,-0.00001102,0.00000729,0.00002381,-0.00003416,0.00000946,-0.00000
 911,0.00002555,0.00000039,0.00000118,0.00000961,-0.00000476,-0.0000172
 4,0.00001395,-0.00000055,-0.00000793,0.00004840,-0.00040093,0.00029648
 ,0.00003661,-0.00001975,-0.00012778,0.09402843,-0.27721689,-0.01692451
 ,0.00210817,-0.00606694,-0.00105449,-0.10180966,0.30192925,-0.00019894
 ,-0.00044399,-0.00092855,0.00000042,0.00002247,0.00006245,-0.00161469,
 -0.00089923,0.00032348,0.00016998,-0.00003793,-0.00026508,0.00025658,-
 0.00010741,0.00059740,0.00449650,-0.00732622,-0.00186359,0.00019566,-0
 .00097439,0.00036920,-0.00024474,0.00007198,-0.00009879,-0.00068668,0.
 00019053,0.00001537,-0.00002360,0.00004164,0.00004443,0.00002570,0.000
 00917,-0.00002136,0.00031807,-0.00013849,-0.00002618,0.00007444,0.0000
 7702,0.00018295,0.00014332,-0.00016628,-0.00001677,-0.00028726,-0.0000
 5430,-0.00006137,0.00012149,0.00007232,-0.00013992,-0.00028112,-0.0000
 6518,0.00010246,-0.00000544,0.00003580,0.00002442,0.00008763,-0.000043
 24,0.00005712,0.00000480,-0.00000468,-0.00000256,-0.00000212,-0.000004
 35,-0.00000452,0.00001071,-0.00000649,0.00000995,0.00010510,0.00144462
 ,-0.00027498,-0.00007962,0.00001842,0.00008195,0.00460374,-0.01574331,
 -0.04962244,-0.01006602,0.02625227,0.00535555,-0.00456354,0.01908719,0
 .04714238,-0.00026061,-0.00014225,0.00036101,-0.00000585,-0.00000618,0
 .00003772,-0.00010357,0.00140099,-0.00041743,0.00034248,-0.00006089,-0
 .00138573,-0.00031272,-0.00014683,-0.00105221,-0.01958794,-0.00244812,
 0.01316458,-0.00034633,-0.00192212,-0.00070685,-0.00001651,-0.00030137
 ,0.00018571,-0.00041057,0.00006285,0.00070030,-0.00006386,-0.00001837,
 0.00013292,-0.00015255,-0.00006246,-0.00000745,-0.00025202,0.00071634,
 0.00015847,-0.00003522,-0.00015717,0.00004268,-0.00006272,0.00049686,-
 0.00022236,0.00001838,0.00053666,-0.00004765,-0.00000219,-0.00010292,-
 0.00010044,0.00022794,-0.00000654,-0.00001023,-0.00002141,-0.00013600,
 -0.00000797,0.00000093,-0.00005940,-0.00001147,0.00000042,0.00000209,0
 .00000242,0.00001184,-0.00003479,-0.00002191,0.00000315,-0.00000281,-0
 .00000622,0.00014031,0.00021054,0.00030664,-0.00002826,-0.00007004,-0.
 00008169,-0.18878006,-0.00129914,0.13605002,0.01030607,-0.00024744,-0.
 00875810,-0.00815047,-0.00043333,0.00748560,0.20754371,-0.00128150,0.0
 0029221,0.00067953,0.00013205,-0.00001121,-0.00012517,-0.00045138,-0.0
 0098720,-0.00073139,0.00008255,-0.00037254,-0.00058412,0.00068629,0.00
 022533,-0.00090690,-0.01608927,-0.00009484,0.01522857,0.00021869,-0.00
 068163,0.00010525,-0.00054224,-0.00001835,-0.00012792,-0.00008862,0.00
 015482,-0.00004260,-0.00000840,0.00000380,0.00003296,-0.00008993,-0.00
 004389,-0.00001784,0.00000989,-0.00105617,0.00019765,-0.00004903,-0.00
 005059,-0.00015635,-0.00016572,-0.00037170,-0.00026558,0.00058672,-0.0
 0026688,0.00011044,-0.00005769,-0.00003700,0.00016334,0.00030443,0.000
 17692,-0.00013068,-0.00005551,-0.00009153,0.00005282,-0.00005609,0.000
 02478,-0.00001009,-0.00003813,0.00000895,-0.00001878,-0.00000853,0.000
 00929,0.00003663,-0.00004399,0.00001076,0.00001293,0.00057663,-0.00030
 215,0.00009549,-0.00001118,0.00012678,-0.00016578,-0.00247624,-0.04538
 529,0.00103398,-0.00690101,-0.00028093,0.00604579,0.02160276,0.0012869
 3,-0.02128041,0.00423122,0.04773456,-0.00007036,0.00016380,-0.00034802
 ,-0.00001057,0.00004322,0.00002365,0.00058534,0.00002611,0.00071499,0.
 00057775,0.00061838,-0.00058544,-0.00023354,0.00007181,-0.00066715,-0.
 00896445,0.00063821,0.00825012,-0.00123092,-0.00069690,-0.00092600,0.0
 0009065,-0.00055149,0.00006956,-0.00015165,0.00011277,0.00016708,-0.00
 002134,0.00000423,0.00007281,-0.00007674,-0.00000216,0.00006095,0.0006
 5122,-0.00047471,0.00005285,0.00003505,0.00013521,-0.00003858,-0.00006
 369,-0.00039019,0.00036437,-0.00004888,-0.00039317,-0.00030404,-0.0002
 8610,-0.00018062,0.00016969,-0.00000609,0.00022367,-0.00008963,-0.0000
 8793,-0.00008873,-0.00005518,0.00002841,0.00010238,-0.00009914,-0.0000
 1053,0.00002894,-0.00001571,0.00001448,-0.00002260,-0.00003146,0.00000
 278,-0.00000570,-0.00001216,-0.00020504,0.00078240,0.00043320,-0.00003
 928,-0.00029126,-0.00000699,0.13360080,0.00055999,-0.16736190,0.022277
 01,-0.00106352,-0.01915103,-0.00058540,-0.00014655,-0.00090970,-0.1457
 8714,0.00073269,0.18018921,-0.00314988,-0.00115950,0.00095354,0.000007
 05,-0.00252501,-0.00036387,0.00583147,-0.02216908,0.00192899,-0.001781
 12,0.00037267,-0.00483969,-0.08658197,0.00358411,-0.00705023,-0.002790
 11,-0.00270367,-0.00452553,-0.00082254,0.00092332,0.00011705,0.0000996
 3,0.02840951,-0.00404593,-0.00008669,-0.00001289,0.00046914,-0.0006029
 6,0.00198129,0.00177243,-0.00013271,0.00113815,-0.00008906,0.00027809,
 -0.00035128,-0.00028088,-0.00002783,-0.00000209,0.00006346,-0.00018082
 ,0.00006630,-0.00001420,-0.00016121,-0.00002686,0.00010906,0.00004550,
 0.00005731,-0.00003710,-0.00002811,0.00007047,0.00005116,-0.00011306,-
 0.00023395,0.00009140,0.00002472,-0.00001933,0.00001174,-0.00001085,-0
 .00000321,0.00000837,-0.00001789,-0.00001712,0.00001887,0.00001391,-0.
 00001020,0.00000679,0.00046158,-0.00060807,0.00044553,0.00002726,0.000
 15072,-0.00002894,0.00051137,-0.00106314,0.00018180,0.00006052,0.00005
 984,-0.00000315,-0.00031346,-0.00031898,-0.00006013,-0.00002837,-0.000
 03334,0.00001043,0.58400956,-0.00044650,0.00008911,0.00036254,-0.00029
 476,-0.00057567,-0.00013408,-0.00313261,-0.02249218,-0.00037265,0.0002
 0157,0.00074374,0.00028875,0.01178940,-0.20934043,0.01010022,-0.002480
 19,0.00276590,-0.00109879,0.00111183,-0.00063132,0.00050120,0.00545391
 ,-0.02032684,0.00325106,0.00000047,-0.00001369,-0.00000662,-0.00185257
 ,0.00112985,-0.00104485,-0.00011953,-0.00010682,-0.00001942,0.00048420
 ,-0.00010269,0.00010667,-0.00004168,-0.00000234,-0.00001242,0.00003274
 ,-0.00010147,-0.00002349,0.00005470,0.00006513,-0.00006292,0.00001717,
 0.00003313,0.00004464,0.00007377,0.00003607,0.00000786,0.00007785,0.00
 011643,0.00003227,0.00000037,-0.00000992,-0.00000412,0.00000303,-0.000
 01233,-0.00000508,-0.00000014,0.00000344,0.00000338,0.00000077,-0.0000
 0459,0.00000408,0.00044719,-0.00049482,-0.00046933,-0.00010507,0.00014
 651,-0.00016561,0.00042250,-0.00024566,0.00006106,0.00002432,0.0000824
 4,0.00003943,-0.00008759,-0.00006891,-0.00001269,0.00004580,0.00005812
 ,0.00002781,0.00691307,0.48913856,0.00093576,-0.00042183,-0.00274506,-
 0.00045856,-0.00134624,0.00098772,0.00181390,-0.01002378,0.00443785,-0
 .00492541,0.00034103,0.00578402,-0.00726654,0.00519629,-0.07660150,-0.
 00475448,-0.00099268,0.00482659,0.00023344,0.00037405,-0.00105263,-0.0
 0339422,0.01485087,0.00453952,0.00045768,-0.00004631,-0.00080946,0.001
 87312,0.00075828,-0.00350248,-0.00003619,0.00055929,-0.00009020,0.0005
 8333,-0.00041772,0.00011617,0.00008157,0.00002898,0.00007225,0.0002470
 1,0.00004224,0.00010018,-0.00009071,-0.00000038,-0.00005400,0.00003282
 ,0.00005413,-0.00012516,-0.00012255,-0.00003118,-0.00003266,0.00002457
 ,0.00006438,-0.00011510,-0.00001713,-0.00002809,-0.00000301,0.00000013
 ,-0.00000561,-0.00000320,-0.00000082,0.00001141,-0.00000567,-0.0000076
 7,-0.00000934,-0.00000100,-0.00055840,-0.00003091,-0.00155840,-0.00021
 734,-0.00027485,0.00002098,0.00024625,-0.00047954,0.00022627,0.0000117
 6,0.00003130,-0.00001025,-0.00007114,-0.00013824,-0.00012345,-0.000031
 88,-0.00000435,0.00000544,0.01686860,0.00459584,0.55529657,-0.00047850
 ,0.00011977,-0.00037953,-0.00028737,-0.00122103,-0.00084585,-0.0003116
 9,-0.00166254,-0.00044508,-0.00008810,-0.00050960,-0.00044965,0.000603
 39,0.00134745,-0.00151539,-0.00053911,0.00113684,0.00011744,0.00079917
 ,-0.00010213,0.00036412,-0.00022662,0.00149373,-0.00015605,0.00001795,
 0.00003799,0.00004999,0.00011974,0.00004508,0.00054098,-0.00003424,0.0
 0005311,0.00001736,0.00015779,-0.00013377,-0.00016858,0.00006311,0.000
 01286,0.00005807,0.00012172,0.00007857,-0.00007537,-0.00011009,0.00003
 095,-0.00001026,0.00004363,0.00001449,-0.00007344,-0.00009738,0.000024
 05,0.00006986,0.00014486,-0.00007397,0.00010094,0.00000244,0.00000110,
 -0.00000025,0.00000381,-0.00000798,0.00000076,0.00000568,0.00001128,-0
 .00001263,0.00000964,-0.00000206,0.00000381,0.00006281,-0.00012237,-0.
 00031333,-0.00003339,-0.00000028,-0.00003936,0.00001128,0.00002741,-0.
 00001687,0.00000692,0.00002998,0.00001213,0.00001055,0.00000883,0.0000
 0330,0.00002642,0.00001395,0.00000730,-0.21359833,0.07101592,0.1083275
 0,0.23081719,0.00019813,-0.00081440,-0.00060199,-0.00073707,-0.0000509
 9,-0.00106536,0.00053665,0.00049533,0.00092847,-0.00016653,-0.00037683
 ,0.00149718,0.02658553,-0.01188348,-0.01590849,-0.00018517,0.00002934,
 0.00125107,0.00017415,-0.00034516,-0.00011598,-0.00120634,-0.00312836,
 -0.00059135,0.00003517,-0.00001293,-0.00013240,0.00035570,-0.00001348,
 -0.00039477,0.00005333,-0.00027939,0.00005023,0.00005678,0.00001140,-0
 .00013558,0.00007050,-0.00000529,0.00002710,-0.00029566,0.00008361,-0.
 00039123,-0.00009402,-0.00001662,0.00005245,0.00006865,0.00001054,-0.0
 0003124,0.00001285,0.00007650,0.00018192,-0.00002101,-0.00033175,0.000
 28178,0.00003049,0.00000357,0.00002280,0.00000818,0.00000320,0.0000076
 0,-0.00001350,0.00000008,-0.00000849,0.00003242,0.00000181,0.00001042,
 -0.00027083,0.00063590,-0.00008889,0.00005951,-0.00014497,0.00009149,0
 .00002738,0.00006238,-0.00001772,-0.00001798,-0.00003761,-0.00002045,0
 .00000505,0.00001282,-0.00000585,-0.00002683,-0.00003358,0.00001598,0.
 07219212,-0.07713515,-0.04840411,-0.07889328,0.08575966,0.00034686,-0.
 00121413,-0.00029559,-0.00050498,-0.00006533,-0.00112694,0.00014281,-0
 .00059149,0.00073349,0.00003482,0.00002941,-0.00054234,-0.00408885,0.0
 0176937,0.00194979,-0.00013258,0.00015173,-0.00014420,0.00011163,-0.00
 004776,0.00003143,-0.00034928,0.00094663,-0.00045109,-0.00003464,0.000
 01514,0.00005611,-0.00006215,0.00006707,0.00031327,-0.00003556,0.00003
 036,0.00002740,-0.00043361,0.00006795,0.00017675,0.00001651,0.00000157
 ,-0.00002715,0.00010554,0.00003467,0.00004014,0.00007088,0.00001289,-0
 .00007371,-0.00002568,-0.00002423,0.00001321,-0.00002668,-0.00001614,-
 0.00003396,-0.00003183,0.00007112,0.00000391,-0.00001672,-0.00001201,-
 0.00000147,0.00001169,0.00000310,-0.00000335,0.00002229,-0.00000180,-0
 .00001531,-0.00000122,0.00000105,-0.00000690,-0.00010083,0.00056501,0.
 00057005,0.00015131,0.00001729,0.00001568,0.00000877,-0.00000727,0.000
 00006,0.00000050,-0.00004042,-0.00000456,-0.00001100,0.00000709,-0.000
 00608,-0.00000429,-0.00001900,0.00001008,0.10747221,-0.04778495,-0.113
 63497,-0.11731005,0.05105077,0.12100898,-0.00010355,0.00101527,0.00023
 020,-0.00000744,-0.00089702,0.00019353,0.00016873,0.00080337,-0.000397
 49,0.00025086,-0.00015667,0.00025858,0.00161750,0.00187980,0.00150200,
 0.00003511,0.00026699,-0.00015366,0.00020403,0.00013633,0.00002250,0.0
 0040219,0.00277661,0.00004085,0.00003244,-0.00000791,-0.00000042,0.000
 42385,0.00029732,-0.00002779,-0.00001056,-0.00005462,0.00003492,0.0002
 7225,-0.00006682,-0.00010770,-0.00004112,0.00000086,0.00003453,0.00001
 282,-0.00002923,0.00010718,-0.00006671,-0.00001171,0.00005622,0.000003
 15,0.00001648,-0.00001236,-0.00001737,-0.00000014,-0.00005393,-0.00000
 744,0.00002809,-0.00010451,0.00001758,-0.00000011,-0.00000398,-0.00001
 841,-0.00000742,-0.00000040,-0.00001186,-0.00000407,0.00002093,-0.0000
 1484,-0.00000819,0.00000393,-0.00000432,-0.00049929,-0.00055493,-0.000
 07909,0.00004647,0.00004553,-0.00000386,0.00003393,0.00007504,0.000003
 55,0.00004373,-0.00000435,0.00001979,-0.00001988,0.00001322,-0.0000109
 4,-0.00000033,-0.00000964,-0.23409395,-0.09461836,-0.08741063,-0.01967
 540,-0.01022786,-0.01071083,0.25179408,0.00090058,-0.00063139,0.000312
 43,0.00010238,0.00037253,0.00000859,0.00207537,-0.00539705,0.00118346,
 0.00010960,-0.00022287,0.00005857,-0.02784831,-0.01523734,-0.01312943,
 -0.00172912,-0.00006712,-0.00074807,0.00038975,0.00013928,0.00019114,-
 0.00244594,0.00118655,-0.00119715,0.00008897,0.00002983,0.00003812,0.0
 0142832,-0.00029603,0.00070100,-0.00000142,0.00002712,-0.00000908,-0.0
 0015374,0.00009137,-0.00005732,-0.00000284,-0.00000429,-0.00001505,-0.
 00002526,0.00001799,-0.00001146,0.00001216,0.00000445,0.00002763,-0.00
 001299,-0.00001537,0.00000804,0.00001459,0.00000104,0.00000179,0.00001
 938,-0.00002077,-0.00001435,0.00000381,0.00000105,0.00000013,-0.000001
 49,-0.00000091,0.00000227,-0.00000165,-0.00000186,0.00000137,-0.000000
 23,0.00000072,-0.00000010,-0.00018508,0.00025710,0.00000255,0.00003535
 ,-0.00008607,0.00007122,0.00028196,-0.00039646,0.00008490,0.00001418,0
 .00002177,0.00000585,-0.00011356,-0.00011824,-0.00003253,-0.00000260,-
 0.00000520,0.00001783,-0.09012489,-0.09327173,-0.04250383,0.00897360,0
 .00437690,0.00560219,0.09926355,0.10547805,-0.00029859,0.00038504,0.00
 026149,0.00016068,-0.00045738,-0.00016862,-0.00050392,0.00062249,0.000
 79372,0.00025413,-0.00005254,-0.00014083,0.00221924,0.00131421,-0.0005
 3649,-0.00007111,0.00011829,0.00024510,0.00000529,0.00005681,0.0001010
 0,0.00018545,0.00130106,0.00020518,-0.00000246,-0.00000351,0.00003283,
 -0.00003267,0.00017018,0.00040783,0.00002589,-0.00002929,-0.00004626,0
 .00008324,-0.00021445,-0.00008618,-0.00002886,-0.00001359,0.00000756,-
 0.00012352,0.00000944,-0.00005180,-0.00003279,-0.00002350,0.00005234,0
 .00000139,0.00002351,0.00001436,0.00001342,0.00002065,0.00002426,0.000
 01181,-0.00003445,0.00006532,0.00002163,-0.00000519,0.00000323,-0.0000
 1139,0.00000048,0.00000106,-0.00000375,-0.00000055,0.00000773,0.000000
 23,-0.00000180,0.00000519,0.00005349,-0.00008469,0.00001317,0.00001633
 ,0.00018015,0.00008699,0.00007188,0.00000263,-0.00011603,-0.00000830,0
 .00000543,0.00000447,0.00000406,-0.00001202,-0.00000800,0.00001194,0.0
 0002802,0.00001223,-0.08750260,-0.04468598,-0.08930339,0.01437538,0.00
 792339,0.00721136,0.09691905,0.04645736,0.09165229,-0.00000235,-0.0009
 8784,-0.00004839,-0.00142197,-0.00065795,0.00023603,-0.00007466,-0.001
 40674,-0.00020871,-0.00054515,-0.00013680,0.00042350,-0.00147034,0.002
 20085,-0.00205279,-0.00019715,0.00066793,-0.00033993,0.00044440,-0.000
 11579,0.00024982,-0.00045515,0.00156359,-0.00012350,0.00004423,0.00003
 204,-0.00005983,0.00045751,0.00004326,-0.00033551,-0.00000366,0.000052
 90,-0.00005750,-0.00025502,0.00020378,0.00023372,-0.00001682,-0.000004
 24,-0.00006853,0.00007101,-0.00002971,0.00005686,0.00015990,0.00005706
 ,-0.00008112,-0.00004248,-0.00002902,0.00006843,0.00005749,-0.00001126
 ,-0.00004543,0.00002443,0.00009142,-0.00004101,-0.00002156,-0.00000737
 ,-0.00000824,0.00001427,-0.00000019,-0.00000353,0.00001483,0.00000021,
 -0.00001202,-0.00000174,0.00000416,-0.00000775,-0.00004392,0.00034726,
 0.00015206,0.00014805,-0.00018127,-0.00006379,0.00001384,0.00001327,-0
 .00000159,-0.00000109,-0.00003114,0.00000163,-0.00000273,0.00001686,-0
 .00000238,0.00001051,0.00000293,0.00000807,-0.04684880,0.00500843,-0.0
 2237377,0.00245212,-0.00834651,0.02538496,-0.00109106,0.00893559,-0.02
 581458,0.04858308,-0.00027765,-0.00050799,0.00079616,-0.00131196,0.000
 03247,0.00003105,0.00080761,0.00046608,-0.00039665,0.00110155,-0.00042
 816,-0.00102511,0.00390835,-0.01012074,0.03132112,0.00090285,-0.000125
 03,-0.00090182,-0.00002134,-0.00031613,0.00020472,-0.00118798,-0.00325
 808,-0.00043934,-0.00007971,-0.00000130,0.00010372,-0.00009578,0.00001
 813,0.00052864,0.00005881,-0.00028340,0.00003881,-0.00012390,0.0003702
 5,-0.00001123,0.00000126,0.00000058,-0.00001596,0.00000214,0.00004774,
 0.00000851,0.00003919,0.00003657,-0.00001134,0.00000403,-0.00004050,0.
 00001496,0.00000257,0.00001657,-0.00002425,0.00001351,-0.00008239,-0.0
 0002469,-0.00002164,0.00000538,-0.00000315,0.00000703,-0.00000316,0.00
 000020,0.00000409,-0.00000419,-0.00000361,0.00000271,-0.00000209,-0.00
 000312,0.00001274,0.00033838,-0.00034119,-0.00010604,-0.00051540,-0.00
 011764,-0.00001263,0.00005821,0.00000577,-0.00002755,-0.00004858,-0.00
 000973,-0.00000744,0.00001197,0.00002353,-0.00001574,-0.00002259,0.000
 00215,0.00546375,-0.06947188,0.07825089,-0.00174795,0.00304694,-0.0106
 1988,0.00000086,0.00376695,-0.01300019,-0.00729573,0.07701537,-0.00076
 992,0.00062005,0.00040457,0.00001310,-0.00079659,0.00008538,-0.0012001
 8,-0.00078073,0.00030733,-0.00010431,-0.00032015,0.00002026,-0.0003185
 8,0.00065095,0.00240768,-0.00003428,0.00071890,-0.00040815,0.00048585,
 -0.00003712,0.00022307,0.00030097,0.00070008,-0.00005844,0.00002546,0.
 00002296,0.00002867,0.00027195,-0.00001859,-0.00006569,-0.00001176,0.0
 0004030,0.00000268,0.00029071,-0.00012528,0.00003569,-0.00004937,-0.00
 002122,0.00000923,-0.00021918,-0.00000807,-0.00003285,0.00001679,-0.00
 003247,0.00001617,0.00001970,0.00003045,0.00004394,0.00003283,0.000046
 21,0.00001983,-0.00000731,-0.00006423,0.00005552,0.00001207,0.00000309
 ,0.00000112,-0.00000395,0.00000699,0.00000010,-0.00001492,-0.00000160,
 0.00001201,0.00000646,-0.00000283,0.00000326,0.00026823,-0.00038285,-0
 .00010465,-0.00001551,0.00009514,-0.00008050,0.00000777,0.00002807,-0.
 00003316,0.00001278,0.00003088,0.00001836,0.00001092,0.00000872,0.0000
 0423,0.00002101,0.00003087,0.00000589,-0.02173925,0.07647620,-0.286641
 95,-0.00223727,0.00452124,-0.01579411,-0.00000559,0.00294196,-0.010751
 10,0.02493480,-0.08438131,0.31026561\\0.00000263,0.00000045,0.00000384
 ,-0.00000088,-0.00000140,-0.00000325,0.00000028,0.00000088,0.00000181,
 -0.00000065,0.00000416,0.00000648,-0.00000072,0.00000139,0.00000158,0.
 00000175,0.00000144,0.00000347,0.00000270,0.00000386,0.00000631,-0.000
 00215,0.00000572,0.00000413,0.00000273,0.00000364,0.00000792,-0.000003
 15,0.00000589,0.00000523,-0.00000040,0.00000686,0.00000875,-0.00000328
 ,-0.00000334,-0.00000667,-0.00000319,-0.00000367,-0.00001035,-0.000003
 81,-0.00000041,0.00000058,0.00000598,-0.00000318,-0.00000424,-0.000001
 21,-0.00000537,-0.00000201,0.00000083,0.00000005,-0.00000486,-0.000003
 83,0.00000153,-0.00000262,0.00000353,-0.00000584,-0.00000444,0.0000023
 2,-0.00000670,-0.00000728,-0.00000581,0.00000035,-0.00000504,-0.000001
 93,-0.00000362,-0.00000691,0.00000178,-0.00000461,-0.00000356,0.000004
 43,-0.00000313,0.00000058,0.00000285,-0.00000083,0.00000312,0.00000502
 ,-0.00000160,0.00000179,0.00000516,-0.00000041,0.00000590,0.00000348,-
 0.00000211,0.00000152,-0.00000463,0.00000363,0.00000069,-0.00000409,0.
 00000205,-0.00000232,-0.00000434,0.00000398,0.00000087,-0.00000142,0.0
 0000035,-0.00000101\\\@


 YOU CANNOT THROW TO THE GROUND THE LETTERS OF
 THE GREEK ALPHABET AND PICK UP THE ILIAD.
        - RUFUS CHOATE, 1799-1859
 Job cpu time:       2 days  4 hours 51 minutes 48.9 seconds.
 File lengths (MBytes):  RWF=    902 Int=      0 D2E=      0 Chk=     26 Scr=      1
 Normal termination of Gaussian 09 at Fri Jul 22 20:38:02 2016.
